H                                                                       
SP        RHF                                                         Gen                 
Number of atoms                            I                2
Info1-9                                    I   N=           9
          18          17           0           0           0         110
           1           1           2
Charge                                     I                0
Multiplicity                               I                1
Number of electrons                        I                2
Number of alpha electrons                  I                1
Number of beta electrons                   I                1
Number of basis functions                  I                8
Number of independent functions            I                8
Number of point charges in /Mol/           I                0
Number of translation vectors              I                0
Atomic numbers                             I   N=           2
           1           1
Nuclear charges                            R   N=           2
  1.00000000E+00  1.00000000E+00
Current cartesian coordinates              R   N=           6
  0.00000000E+00  0.00000000E+00  0.00000000E+00  1.88972613E+00  0.00000000E+00
  0.00000000E+00
Force Field                                I                0
Int Atom Types                             I   N=           2
           0           0
MM charges                                 R   N=           2
  0.00000000E+00  0.00000000E+00
Integer atomic weights                     I   N=           2
           1           1
Real atomic weights                        R   N=           2
  1.00782504E+00  1.00782504E+00
Atom fragment info                         I   N=           2
           0           0
Atom residue num                           I   N=           2
           0           0
Nuclear spins                              I   N=           2
           1           1
Nuclear ZEff                               R   N=           2
 -1.00000000E+00 -1.00000000E+00
Nuclear ZNuc                               R   N=           2
  1.00000000E+00  1.00000000E+00
Nuclear QMom                               R   N=           2
  0.00000000E+00  0.00000000E+00
Nuclear GFac                               R   N=           2
  2.79284600E+00  2.79284600E+00
MicOpt                                     I   N=           2
          -1          -1
Number of contracted shells                I                4
Number of primitive shells                 I                4
Pure/Cartesian d shells                    I                1
Pure/Cartesian f shells                    I                1
Highest angular momentum                   I                1
Largest degree of contraction              I                1
Shell types                                I   N=           4
           0           1           0           1
Number of primitives per shell             I   N=           4
           1           1           1           1
Shell to atom map                          I   N=           4
           1           1           2           2
Primitive exponents                        R   N=           4
  5.00000000E-01  2.00000000E-01  5.00000000E-01  2.00000000E-01
Contraction coefficients                   R   N=           4
  1.00000000E+00  1.00000000E+00  1.00000000E+00  1.00000000E+00
Coordinates of each shell                  R   N=          12
  0.00000000E+00  0.00000000E+00  0.00000000E+00  0.00000000E+00  0.00000000E+00
  0.00000000E+00  1.88972613E+00  0.00000000E+00  0.00000000E+00  1.88972613E+00
  0.00000000E+00  0.00000000E+00
Constraint Structure                       R   N=           6
  0.00000000E+00  0.00000000E+00  0.00000000E+00  1.88972613E+00  0.00000000E+00
  0.00000000E+00
Num ILSW                                   I              100
ILSW                                       I   N=         100
           0           1           0           0           2           0
           0           0           0           0           0          -1
           5           0           0           1           0           0
           0           0           1           0           0           0
           1           1           0           0           0           0
           0           0      100000           0          -1           0
           0           0           0           0           0           0
           0           0           0           1           0           0
           0           0           1           0           0           0
           0           0           4          41           0           0
           0           0           0           0           0           0
           0           0           0           0           0           0
           0           0           0           0           0           0
           0           0           0           0           0           0
           0           0           0           0           0           0
           0           0           0           0           0           0
           0           0           0           0
Num RLSW                                   I               41
RLSW                                       R   N=          41
  1.00000000E+00  1.00000000E+00  1.00000000E+00  1.00000000E+00  1.00000000E+00
  0.00000000E+00  0.00000000E+00  1.00000000E+00  0.00000000E+00  0.00000000E+00
  0.00000000E+00  0.00000000E+00  1.00000000E+00  0.00000000E+00  0.00000000E+00
  0.00000000E+00  0.00000000E+00  1.00000000E+00  0.00000000E+00  0.00000000E+00
  0.00000000E+00  0.00000000E+00  1.00000000E+00  0.00000000E+00  0.00000000E+00
  0.00000000E+00  0.00000000E+00  1.00000000E+00  0.00000000E+00  0.00000000E+00
  0.00000000E+00  0.00000000E+00  0.00000000E+00  0.00000000E+00  0.00000000E+00
  0.00000000E+00  0.00000000E+00  0.00000000E+00  1.00000000E+00  1.00000000E+00
  0.00000000E+00
MxBond                                     I                1
NBond                                      I   N=           2
           0           0
IBond                                      I   N=           2
           0           0
RBond                                      R   N=           2
  0.00000000E+00  0.00000000E+00
Virial Ratio                               R      1.733126558400027E+00
SCF Energy                                 R     -9.057218487754317E-01
Total Energy                               R     -9.057218487754317E-01
RMS Density                                R      1.344991354159171E-11
External E-field                           R   N=          35
  0.00000000E+00  0.00000000E+00  0.00000000E+00  0.00000000E+00  0.00000000E+00
  0.00000000E+00  0.00000000E+00  0.00000000E+00  0.00000000E+00  0.00000000E+00
  0.00000000E+00  0.00000000E+00  0.00000000E+00  0.00000000E+00  0.00000000E+00
  0.00000000E+00  0.00000000E+00  0.00000000E+00  0.00000000E+00  0.00000000E+00
  0.00000000E+00  0.00000000E+00  0.00000000E+00  0.00000000E+00  0.00000000E+00
  0.00000000E+00  0.00000000E+00  0.00000000E+00  0.00000000E+00  0.00000000E+00
  0.00000000E+00  0.00000000E+00  0.00000000E+00  0.00000000E+00  0.00000000E+00
IOpCl                                      I                0
IROHF                                      I                0
Alpha Orbital Energies                     R   N=           8
 -3.75782864E-01  2.54750747E-01  4.21886982E-01  4.21886982E-01  6.37237563E-01
  6.37237563E-01  6.55425285E-01  9.49932835E-01
Alpha MO coefficients                      R   N=          64
  5.79591873E-01  3.53435794E-02  2.99377192E-16  6.57174584E-16  5.79591873E-01
 -3.53435794E-02 -1.67695441E-16 -6.92673569E-16 -9.94495132E-02  5.92203464E-01
 -4.15929524E-16 -4.69520980E-17  9.94495132E-02  5.92203464E-01  1.65473842E-16
 -1.63603889E-18  4.80005393E-16  2.06775020E-15  5.40041172E-01  5.02537565E-02
 -1.59364341E-15 -4.55025456E-16  5.40041172E-01  5.02537565E-02 -4.12122525E-16
  6.18891703E-16 -5.02537565E-02  5.40041172E-01 -2.24191540E-16 -7.04156170E-16
 -5.02537565E-02  5.40041172E-01  5.84450230E-15 -1.15944057E-14  1.28511835E+00
  1.16022898E-01  5.22256995E-15  1.27142013E-14 -1.28511835E+00 -1.16022898E-01
 -3.88480436E-15  8.78766835E-15 -1.16022898E-01  1.28511835E+00 -4.07617717E-15
 -8.69744716E-15  1.16022898E-01 -1.28511835E+00 -4.52265395E-01  9.75174343E-01
  1.66878036E-14 -1.06451957E-14 -4.52265395E-01 -9.75174343E-01 -1.87298675E-14
  9.34412331E-15  1.36349816E+00  7.54321712E-01 -1.45252248E-15 -1.74839542E-16
 -1.36349816E+00  7.54321712E-01 -4.52795916E-16  1.85738856E-16
Total SCF Density                          R   N=          36
  6.71853479E-01  4.09697028E-02  2.49833721E-03  3.47033175E-16  2.11621231E-17
  1.79253406E-31  7.61786096E-16  4.64538042E-17  3.93486162E-31  8.63756867E-31
  6.71853479E-01  4.09697028E-02  3.47033175E-16  7.61786096E-16  6.71853479E-01
 -4.09697028E-02 -2.49833721E-03 -2.11621231E-17 -4.64538042E-17 -4.09697028E-02
  2.49833721E-03 -1.94389830E-16 -1.18539143E-17 -1.00408380E-31 -2.20410364E-31
 -1.94389830E-16  1.18539143E-17  5.62435220E-32 -8.02935942E-16 -4.89631266E-17
 -4.14741335E-31 -9.10414928E-31 -8.02935942E-16  4.89631266E-17  2.32316399E-31
  9.59593346E-31
Mulliken Charges                           R   N=           2
  1.94289029E-15  1.77635684E-15
ONIOM Charges                              I   N=          16
           0           0           0           0           0           0
           0           0           0           0           0           0
           0           0           0           0
ONIOM Multiplicities                       I   N=          16
           1           0           0           0           0           0
           0           0           0           0           0           0
           0           0           0           0
Atom Layers                                I   N=           2
           1           1
Atom Modifiers                             I   N=           2
           0           0
Force Field                                I                0
Int Atom Modified Types                    I   N=           2
           0           0
Link Atoms                                 I   N=           2
           0           0
Atom Modified MM Charges                   R   N=           2
  0.00000000E+00  0.00000000E+00
Link Distances                             R   N=           8
  0.00000000E+00  0.00000000E+00  0.00000000E+00  0.00000000E+00  0.00000000E+00
  0.00000000E+00  0.00000000E+00  0.00000000E+00
Cartesian Gradient                         R   N=           6
  0.00000000E+00  0.00000000E+00  0.00000000E+00  0.00000000E+00  0.00000000E+00
  0.00000000E+00
Dipole Moment                              R   N=           3
  1.55431223E-15 -2.80380280E-16  7.55853818E-17
Quadrupole Moment                          R   N=           6
  4.58113246E-01 -2.29056623E-01 -2.29056623E-01  1.27213747E-16  1.20469409E-15
 -4.53470494E-31
QEq coupling tensors                       R   N=          12
  3.29181356E-02  0.00000000E+00 -1.64590678E-02  0.00000000E+00  0.00000000E+00
 -1.64590678E-02  3.29181356E-02  0.00000000E+00 -1.64590678E-02  0.00000000E+00
  0.00000000E+00 -1.64590678E-02
