 Entering Gaussian System, Link 0=g09
 Input=OOFCl_b3lyp_60.com
 Output=OOFCl_b3lyp_60.log
 Initial command:
 /opt/g09/g09_d.01/g09/l1.exe /home/diana/Desktop/DFT_test/Alchemi/Gaussian/OOFCl/Gau-7073.inp -scrdir=/home/diana/Desktop/DFT_test/Alchemi/Gaussian/OOFCl/
 Entering Link 1 = /opt/g09/g09_d.01/g09/l1.exe PID=      7075.
  
 Copyright (c) 1988,1990,1992,1993,1995,1998,2003,2009,2013,
            Gaussian, Inc.  All Rights Reserved.
  
 This is part of the Gaussian(R) 09 program.  It is based on
 the Gaussian(R) 03 system (copyright 2003, Gaussian, Inc.),
 the Gaussian(R) 98 system (copyright 1998, Gaussian, Inc.),
 the Gaussian(R) 94 system (copyright 1995, Gaussian, Inc.),
 the Gaussian 92(TM) system (copyright 1992, Gaussian, Inc.),
 the Gaussian 90(TM) system (copyright 1990, Gaussian, Inc.),
 the Gaussian 88(TM) system (copyright 1988, Gaussian, Inc.),
 the Gaussian 86(TM) system (copyright 1986, Carnegie Mellon
 University), and the Gaussian 82(TM) system (copyright 1983,
 Carnegie Mellon University). Gaussian is a federally registered
 trademark of Gaussian, Inc.
  
 This software contains proprietary and confidential information,
 including trade secrets, belonging to Gaussian, Inc.
  
 This software is provided under written license and may be
 used, copied, transmitted, or stored only in accord with that
 written license.
  
 The following legend is applicable only to US Government
 contracts under FAR:
  
                    RESTRICTED RIGHTS LEGEND
  
 Use, reproduction and disclosure by the US Government is
 subject to restrictions as set forth in subparagraphs (a)
 and (c) of the Commercial Computer Software - Restricted
 Rights clause in FAR 52.227-19.
  
 Gaussian, Inc.
 340 Quinnipiac St., Bldg. 40, Wallingford CT 06492
  
  
 ---------------------------------------------------------------
 Warning -- This program may not be used in any manner that
 competes with the business of Gaussian, Inc. or will provide
 assistance to any competitor of Gaussian, Inc.  The licensee
 of this program is prohibited from giving any competitor of
 Gaussian, Inc. access to this program.  By using this program,
 the user acknowledges that Gaussian, Inc. is engaged in the
 business of creating and licensing software in the field of
 computational chemistry and represents and warrants to the
 licensee that it is not a competitor of Gaussian, Inc. and that
 it will not use this program in any manner prohibited above.
 ---------------------------------------------------------------
  

 Cite this work as:
 Gaussian 09, Revision D.01,
 M. J. Frisch, G. W. Trucks, H. B. Schlegel, G. E. Scuseria, 
 M. A. Robb, J. R. Cheeseman, G. Scalmani, V. Barone, B. Mennucci, 
 G. A. Petersson, H. Nakatsuji, M. Caricato, X. Li, H. P. Hratchian, 
 A. F. Izmaylov, J. Bloino, G. Zheng, J. L. Sonnenberg, M. Hada, 
 M. Ehara, K. Toyota, R. Fukuda, J. Hasegawa, M. Ishida, T. Nakajima, 
 Y. Honda, O. Kitao, H. Nakai, T. Vreven, J. A. Montgomery, Jr., 
 J. E. Peralta, F. Ogliaro, M. Bearpark, J. J. Heyd, E. Brothers, 
 K. N. Kudin, V. N. Staroverov, T. Keith, R. Kobayashi, J. Normand, 
 K. Raghavachari, A. Rendell, J. C. Burant, S. S. Iyengar, J. Tomasi, 
 M. Cossi, N. Rega, J. M. Millam, M. Klene, J. E. Knox, J. B. Cross, 
 V. Bakken, C. Adamo, J. Jaramillo, R. Gomperts, R. E. Stratmann, 
 O. Yazyev, A. J. Austin, R. Cammi, C. Pomelli, J. W. Ochterski, 
 R. L. Martin, K. Morokuma, V. G. Zakrzewski, G. A. Voth, 
 P. Salvador, J. J. Dannenberg, S. Dapprich, A. D. Daniels, 
 O. Farkas, J. B. Foresman, J. V. Ortiz, J. Cioslowski, 
 and D. J. Fox, Gaussian, Inc., Wallingford CT, 2013.
 
 ******************************************
 Gaussian 09:  ES64L-G09RevD.01 24-Apr-2013
                26-Jan-2016 
 ******************************************
 %chk=OOFCl_60.chk
 ----------------------------------------------------------------------
 # B3LYP/def2QZVPP Int(Grid=UltraFineGrid) SCF(verytight,maxcycles=1000
 )
 ----------------------------------------------------------------------
 1/38=1/1;
 2/12=2,17=6,18=5,40=1/2;
 3/5=45,7=202,11=2,16=1,25=1,30=1,74=-5,75=-5/1,2,3;
 4//1;
 5/5=2,7=1000,17=3,38=5/2;
 6/7=2,8=2,9=2,10=2,28=1/1;
 99/5=1,9=1/99;
 ----
 TEST
 ----
 Symbolic Z-matrix:
 Charge =  0 Multiplicity = 1
 C                    -1.08122  -0.04772  -0.06801 
 O                    -1.90319   0.33976  -0.81193 
 F                    -1.23998  -1.1212    0.71765 
 C                     0.29949   0.57971   0.1316 
 O                     0.46736   1.68907   0.4905 
 Cl                    1.60805  -0.54893  -0.25112 
 
                          Input orientation:                          
 ---------------------------------------------------------------------
 Center     Atomic      Atomic             Coordinates (Angstroms)
 Number     Number       Type             X           Y           Z
 ---------------------------------------------------------------------
      1          6           0       -1.081221   -0.047722   -0.068012
      2          8           0       -1.903188    0.339755   -0.811930
      3          9           0       -1.239981   -1.121199    0.717653
      4          6           0        0.299489    0.579710    0.131603
      5          8           0        0.467358    1.689072    0.490502
      6         17           0        1.608051   -0.548927   -0.251118
 ---------------------------------------------------------------------
                    Distance matrix (angstroms):
                    1          2          3          4          5
     1  C    0.000000
     2  O    1.174386   0.000000
     3  F    1.339712   2.216722   0.000000
     4  C    1.529666   2.408240   2.367808   0.000000
     5  O    2.393008   3.022660   3.296093   1.177995   0.000000
     6  Cl   2.741700   3.665115   3.062238   1.769924   2.619126
                    6
     6  Cl   0.000000
 Stoichiometry    C2ClFO2
 Framework group  C1[X(C2ClFO2)]
 Deg. of freedom    12
 Full point group                 C1      NOp   1
 Largest Abelian subgroup         C1      NOp   1
 Largest concise Abelian subgroup C1      NOp   1
                         Standard orientation:                         
 ---------------------------------------------------------------------
 Center     Atomic      Atomic             Coordinates (Angstroms)
 Number     Number       Type             X           Y           Z
 ---------------------------------------------------------------------
      1          6           0        1.081221   -0.047722    0.068012
      2          8           0        1.903188    0.339755    0.811930
      3          9           0        1.239981   -1.121199   -0.717653
      4          6           0       -0.299489    0.579710   -0.131603
      5          8           0       -0.467358    1.689072   -0.490502
      6         17           0       -1.608051   -0.548927    0.251118
 ---------------------------------------------------------------------
 Rotational constants (GHZ):      4.4896658      2.2682415      1.7913715
 Standard basis: def2QZVPP (5D, 7F)
 There are   446 symmetry adapted cartesian basis functions of A   symmetry.
 There are   355 symmetry adapted basis functions of A   symmetry.
   355 basis functions,   581 primitive gaussians,   446 cartesian basis functions
    27 alpha electrons       27 beta electrons
       nuclear repulsion energy       273.8935022192 Hartrees.
 NAtoms=    6 NActive=    6 NUniq=    6 SFac= 1.00D+00 NAtFMM=   60 NAOKFM=F Big=F
 Integral buffers will be    131072 words long.
 Raffenetti 2 integral format.
 Two-electron integral symmetry is turned on.
 One-electron integrals computed using PRISM.
   1 Symmetry operations used in ECPInt.
 ECPInt:  NShTT=    5778 NPrTT=   17663 LenC2=    5462 LenP2D=   12987.
 LDataN:  DoStor=T MaxTD1= 8 Len=  415
 NBasis=   355 RedAO= T EigKep=  1.01D-04  NBF=   355
 NBsUse=   355 1.00D-06 EigRej= -1.00D+00 NBFU=   355
 ExpMin= 7.60D-02 ExpMax= 1.47D+06 ExpMxC= 1.67D+03 IAcc=3 IRadAn=         5 AccDes= 0.00D+00
 Harris functional with IExCor=  402 and IRadAn=       5 diagonalized for initial guess.
 HarFok:  IExCor=  402 AccDes= 0.00D+00 IRadAn=         5 IDoV= 1 UseB2=F ITyADJ=14
 ICtDFT=  3500011 ScaDFX=  1.000000  1.000000  1.000000  1.000000
 FoFCou: FMM=F IPFlag=           0 FMFlag=      100000 FMFlg1=           0
         NFxFlg=           0 DoJE=T BraDBF=F KetDBF=T FulRan=T
         wScrn=  0.000000 ICntrl=     500 IOpCl=  0 I1Cent=   200000004 NGrid=           0
         NMat0=    1 NMatS0=      1 NMatT0=    0 NMatD0=    1 NMtDS0=    0 NMtDT0=    0
 Petite list used in FoFCou.
 Requested convergence on RMS density matrix=1.00D-08 within1000 cycles.
 Requested convergence on MAX density matrix=1.00D-06.
 Requested convergence on             energy=1.00D-06.
 No special actions if energy rises.
 Integral accuracy reduced to 1.0D-05 until final iterations.
 Initial convergence to 1.0D-05 achieved.  Increase integral accuracy.
 SCF Done:  E(RB3LYP) =  -786.891970747     A.U. after   14 cycles
            NFock= 14  Conv=0.59D-08     -V/T= 2.0025

 **********************************************************************

            Population analysis using the SCF density.

 **********************************************************************

 Orbital symmetries:
       Occupied  (A) (A) (A) (A) (A) (A) (A) (A) (A) (A) (A) (A)
                 (A) (A) (A) (A) (A) (A) (A) (A) (A) (A) (A) (A)
                 (A) (A) (A)
       Virtual   (A) (A) (A) (A) (A) (A) (A) (A) (A) (A) (A) (A)
                 (A) (A) (A) (A) (A) (A) (A) (A) (A) (A) (A) (A)
                 (A) (A) (A) (A) (A) (A) (A) (A) (A) (A) (A) (A)
                 (A) (A) (A) (A) (A) (A) (A) (A) (A) (A) (A) (A)
                 (A) (A) (A) (A) (A) (A) (A) (A) (A) (A) (A) (A)
                 (A) (A) (A) (A) (A) (A) (A) (A) (A) (A) (A) (A)
                 (A) (A) (A) (A) (A) (A) (A) (A) (A) (A) (A) (A)
                 (A) (A) (A) (A) (A) (A) (A) (A) (A) (A) (A) (A)
                 (A) (A) (A) (A) (A) (A) (A) (A) (A) (A) (A) (A)
                 (A) (A) (A) (A) (A) (A) (A) (A) (A) (A) (A) (A)
                 (A) (A) (A) (A) (A) (A) (A) (A) (A) (A) (A) (A)
                 (A) (A) (A) (A) (A) (A) (A) (A) (A) (A) (A) (A)
                 (A) (A) (A) (A) (A) (A) (A) (A) (A) (A) (A) (A)
                 (A) (A) (A) (A) (A) (A) (A) (A) (A) (A) (A) (A)
                 (A) (A) (A) (A) (A) (A) (A) (A) (A) (A) (A) (A)
                 (A) (A) (A) (A) (A) (A) (A) (A) (A) (A) (A) (A)
                 (A) (A) (A) (A) (A) (A) (A) (A) (A) (A) (A) (A)
                 (A) (A) (A) (A) (A) (A) (A) (A) (A) (A) (A) (A)
                 (A) (A) (A) (A) (A) (A) (A) (A) (A) (A) (A) (A)
                 (A) (A) (A) (A) (A) (A) (A) (A) (A) (A) (A) (A)
                 (A) (A) (A) (A) (A) (A) (A) (A) (A) (A) (A) (A)
                 (A) (A) (A) (A) (A) (A) (A) (A) (A) (A) (A) (A)
                 (A) (A) (A) (A) (A) (A) (A) (A) (A) (A) (A) (A)
                 (A) (A) (A) (A) (A) (A) (A) (A) (A) (A) (A) (A)
                 (A) (A) (A) (A) (A) (A) (A) (A) (A) (A) (A) (A)
                 (A) (A) (A) (A) (A) (A) (A) (A) (A) (A) (A) (A)
                 (A) (A) (A) (A) (A) (A) (A) (A) (A) (A) (A) (A)
                 (A) (A) (A) (A)
 The electronic state is 1-A.
 Alpha  occ. eigenvalues -- -101.57922 -24.75807 -19.20781 -19.20067 -10.39784
 Alpha  occ. eigenvalues --  -10.37729  -9.51063  -7.27209  -7.26495  -7.26359
 Alpha  occ. eigenvalues --   -1.30220  -1.15090  -1.13072  -0.90222  -0.74871
 Alpha  occ. eigenvalues --   -0.64101  -0.57038  -0.55556  -0.54724  -0.51421
 Alpha  occ. eigenvalues --   -0.48941  -0.47348  -0.43296  -0.39816  -0.37071
 Alpha  occ. eigenvalues --   -0.36137  -0.33799
 Alpha virt. eigenvalues --   -0.11469  -0.05510  -0.01565   0.04453   0.06945
 Alpha virt. eigenvalues --    0.09587   0.10584   0.13674   0.14534   0.15130
 Alpha virt. eigenvalues --    0.16027   0.17589   0.18688   0.20816   0.24270
 Alpha virt. eigenvalues --    0.25278   0.26640   0.27000   0.28448   0.30228
 Alpha virt. eigenvalues --    0.32862   0.34707   0.35321   0.36684   0.38730
 Alpha virt. eigenvalues --    0.39439   0.41238   0.45981   0.47566   0.51129
 Alpha virt. eigenvalues --    0.51924   0.53806   0.57065   0.58484   0.63203
 Alpha virt. eigenvalues --    0.64456   0.65782   0.67516   0.68621   0.70495
 Alpha virt. eigenvalues --    0.71303   0.74423   0.78090   0.79951   0.81928
 Alpha virt. eigenvalues --    0.82256   0.83350   0.98720   1.01352   1.02333
 Alpha virt. eigenvalues --    1.03646   1.06515   1.09141   1.10595   1.13277
 Alpha virt. eigenvalues --    1.14868   1.15486   1.16540   1.18050   1.22149
 Alpha virt. eigenvalues --    1.25220   1.25570   1.26004   1.31939   1.32503
 Alpha virt. eigenvalues --    1.34352   1.36728   1.37552   1.39267   1.40483
 Alpha virt. eigenvalues --    1.43394   1.43945   1.45679   1.51476   1.53906
 Alpha virt. eigenvalues --    1.54220   1.59198   1.63059   1.64660   1.66537
 Alpha virt. eigenvalues --    1.67338   1.68747   1.71266   1.72959   1.75400
 Alpha virt. eigenvalues --    1.77731   1.78494   1.81611   1.84279   1.87258
 Alpha virt. eigenvalues --    1.90506   1.95371   1.98296   2.01246   2.01600
 Alpha virt. eigenvalues --    2.05049   2.08371   2.09638   2.14342   2.17519
 Alpha virt. eigenvalues --    2.19968   2.25468   2.25646   2.32986   2.35025
 Alpha virt. eigenvalues --    2.37072   2.39969   2.41175   2.43459   2.48274
 Alpha virt. eigenvalues --    2.55843   2.60188   2.68872   2.75663   2.78572
 Alpha virt. eigenvalues --    2.86620   2.92336   3.03655   3.04807   3.07239
 Alpha virt. eigenvalues --    3.13831   3.15293   3.18893   3.21940   3.24694
 Alpha virt. eigenvalues --    3.27984   3.29315   3.29943   3.34174   3.36785
 Alpha virt. eigenvalues --    3.40792   3.49722   3.53407   3.54131   3.54749
 Alpha virt. eigenvalues --    3.56501   3.60193   3.64637   3.69492   3.71379
 Alpha virt. eigenvalues --    3.75183   3.76147   3.80065   3.81142   3.83196
 Alpha virt. eigenvalues --    3.84885   3.86173   3.87021   3.88070   3.90337
 Alpha virt. eigenvalues --    3.91993   3.96498   3.97258   4.02144   4.05872
 Alpha virt. eigenvalues --    4.08092   4.09298   4.11041   4.14175   4.16650
 Alpha virt. eigenvalues --    4.18955   4.21388   4.24646   4.27506   4.35324
 Alpha virt. eigenvalues --    4.41309   4.43651   4.44294   4.48593   4.50435
 Alpha virt. eigenvalues --    4.54345   4.56409   4.58008   4.61964   4.64399
 Alpha virt. eigenvalues --    4.72898   4.75590   4.79962   4.83216   4.86614
 Alpha virt. eigenvalues --    4.95552   4.95892   5.01255   5.04645   5.08681
 Alpha virt. eigenvalues --    5.14030   5.18177   5.23892   5.26683   5.31494
 Alpha virt. eigenvalues --    5.36638   5.40501   5.44677   5.46947   5.50318
 Alpha virt. eigenvalues --    5.54810   5.59043   5.60474   5.71061   5.77407
 Alpha virt. eigenvalues --    5.79204   5.82499   5.88974   5.93508   5.97264
 Alpha virt. eigenvalues --    5.99519   6.06767   6.12080   6.15463   6.19217
 Alpha virt. eigenvalues --    6.21909   6.22900   6.29307   6.33770   6.36525
 Alpha virt. eigenvalues --    6.40239   6.40963   6.49038   6.55971   6.58932
 Alpha virt. eigenvalues --    6.62038   6.69843   6.82745   7.02296   7.07754
 Alpha virt. eigenvalues --    7.09381   7.12293   7.20519   7.41849   7.50722
 Alpha virt. eigenvalues --    7.56409   7.56913   7.62881   7.88128   7.99182
 Alpha virt. eigenvalues --    8.03968   8.65803   8.74603   8.80128   8.80846
 Alpha virt. eigenvalues --    8.80974   8.81733   8.96456   9.09338   9.13105
 Alpha virt. eigenvalues --    9.16508   9.33301   9.60810   9.65619   9.86043
 Alpha virt. eigenvalues --    9.88085   9.90609   9.96187  10.21579  10.27733
 Alpha virt. eigenvalues --   10.29653  10.37756  10.54388  10.58846  10.60403
 Alpha virt. eigenvalues --   10.63369  10.72191  10.84163  10.93007  10.93707
 Alpha virt. eigenvalues --   10.97352  10.99021  11.09544  11.27492  11.31938
 Alpha virt. eigenvalues --   11.32018  11.34593  11.37197  11.41566  11.43632
 Alpha virt. eigenvalues --   11.43872  11.64029  11.65837  11.72286  11.77831
 Alpha virt. eigenvalues --   11.78404  11.81679  11.94881  11.96226  12.02016
 Alpha virt. eigenvalues --   12.03252  12.06264  12.11242  12.16251  12.21414
 Alpha virt. eigenvalues --   12.35957  13.16544  13.27555  13.37812  13.55627
 Alpha virt. eigenvalues --   13.85128  13.94323  14.46967  14.50963  14.52944
 Alpha virt. eigenvalues --   14.58050  14.79979  14.85896  14.91728  15.43111
 Alpha virt. eigenvalues --   15.67241  15.76885  15.85368  16.03502  16.26143
 Alpha virt. eigenvalues --   16.58709  16.66398  28.02389  28.18710  28.85975
 Alpha virt. eigenvalues --   41.63718  41.64895  41.74173  48.02065  48.08473
 Alpha virt. eigenvalues --   54.42795  98.32888 147.06376 147.15580 253.04542
 Alpha virt. eigenvalues --  253.11923 285.37793 525.59785
          Condensed to atoms (all electrons):
               1          2          3          4          5          6
     1  C    4.392543   0.688761   0.314383   0.317958  -0.048476  -0.086209
     2  O    0.688761   7.633581  -0.057820  -0.053224   0.004909   0.004697
     3  F    0.314383  -0.057820   8.990542  -0.066371   0.003283   0.006077
     4  C    0.317958  -0.053224  -0.066371   4.599107   0.635116   0.306471
     5  O   -0.048476   0.004909   0.003283   0.635116   7.683480  -0.077554
     6  Cl  -0.086209   0.004697   0.006077   0.306471  -0.077554  16.916744
 Mulliken charges:
               1
     1  C    0.421041
     2  O   -0.220903
     3  F   -0.190095
     4  C    0.260942
     5  O   -0.200758
     6  Cl  -0.070227
 Sum of Mulliken charges =   0.00000
 Mulliken charges with hydrogens summed into heavy atoms:
               1
     1  C    0.421041
     2  O   -0.220903
     3  F   -0.190095
     4  C    0.260942
     5  O   -0.200758
     6  Cl  -0.070227
 Electronic spatial extent (au):  <R**2>=            631.1330
 Charge=              0.0000 electrons
 Dipole moment (field-independent basis, Debye):
    X=             -0.8264    Y=             -0.9851    Z=             -0.2229  Tot=              1.3050
 Quadrupole moment (field-independent basis, Debye-Ang):
   XX=            -41.4258   YY=            -41.8647   ZZ=            -38.7610
   XY=              1.1080   XZ=             -2.1109   YZ=             -0.2339
 Traceless Quadrupole moment (field-independent basis, Debye-Ang):
   XX=             -0.7419   YY=             -1.1809   ZZ=              1.9228
   XY=              1.1080   XZ=             -2.1109   YZ=             -0.2339
 Octapole moment (field-independent basis, Debye-Ang**2):
  XXX=             -2.6815  YYY=             -9.5765  ZZZ=             -4.1469  XYY=              1.8322
  XXY=             -4.1954  XXZ=             -4.3237  XZZ=              0.6060  YZZ=             -1.4696
  YYZ=              1.7581  XYZ=             -1.9893
 Hexadecapole moment (field-independent basis, Debye-Ang**3):
 XXXX=           -444.9720 YYYY=           -210.9574 ZZZZ=            -84.4897 XXXY=             -0.2847
 XXXZ=            -13.3391 YYYX=             -2.0634 YYYZ=              6.6565 ZZZX=             -3.4615
 ZZZY=              2.6507 XXYY=           -105.1858 XXZZ=            -89.8555 YYZZ=            -48.3230
 XXYZ=             -2.5053 YYXZ=             -2.2663 ZZXY=             -2.5555
 N-N= 2.738935022192D+02 E-N=-2.412457889639D+03  KE= 7.848929655771D+02
 1\1\GINC-PC-AVL09\SP\RB3LYP\def2QZVPP\C2Cl1F1O2\DIANA\26-Jan-2016\0\\#
  B3LYP/def2QZVPP Int(Grid=UltraFineGrid) SCF(verytight,maxcycles=1000)
 \\TEST\\0,1\C,0,-1.081221,-0.047722,-0.068012\O,0,-1.903188,0.339755,-
 0.81193\F,0,-1.239981,-1.121199,0.717653\C,0,0.299489,0.57971,0.131603
 \O,0,0.467358,1.689072,0.490502\Cl,0,1.608051,-0.548927,-0.251118\\Ver
 sion=ES64L-G09RevD.01\State=1-A\HF=-786.8919707\RMSD=5.884e-09\Dipole=
 0.3251399,-0.3875537,0.087699\Quadrupole=-0.551619,-0.8779701,1.429589
 1,-0.8237526,-1.5693683,0.1739259\PG=C01 [X(C2Cl1F1O2)]\\@


 CLIMB THE MOUNTAINS AND GET THEIR GOOD TIDINGS.
 NATURE'S PEACE WILL FLOW INTO YOU AS SUNSHINE FLOWS INTO TREES.
 THE WINDS WILL BLOW THEIR OWN FRESHNESS INTO YOU, 
 AND CARES WILL DROP OFF LIKE AUTUMN LEAVES.

                                         -- JOHN MUIR
 Job cpu time:       0 days  0 hours 40 minutes 33.3 seconds.
 File lengths (MBytes):  RWF=     70 Int=      0 D2E=      0 Chk=      5 Scr=      1
 Normal termination of Gaussian 09 at Tue Jan 26 17:22:16 2016.
