TEST                                                                    
SP        RB3LYP                                                      def2QZVPP           
Number of atoms                            I                6
Info1-9                                    I   N=           9
          14          13           0           0           0         110
           1          18        -502
Charge                                     I                0
Multiplicity                               I                1
Number of electrons                        I               54
Number of alpha electrons                  I               27
Number of beta electrons                   I               27
Number of basis functions                  I              355
Number of independent functions            I              355
Number of point charges in /Mol/           I                0
Number of translation vectors              I                0
Atomic numbers                             I   N=           6
           6           8           9           6           8          17
Nuclear charges                            R   N=           6
  6.00000000E+00  8.00000000E+00  9.00000000E+00  6.00000000E+00  8.00000000E+00
  1.70000000E+01
Current cartesian coordinates              R   N=          18
 -1.82726268E+00 -1.03824613E+00  0.00000000E+00 -4.03780576E+00 -8.42236612E-01
  1.97215226E-31 -6.34811036E-01 -3.25997046E+00  1.23259516E-32  0.00000000E+00
  1.24881229E+00 -5.87747175E-39 -7.66242783E-01  3.33823886E+00  1.23259516E-32
  3.24172140E+00  4.76959953E-01 -4.93038066E-32
Force Field                                I                0
Int Atom Types                             I   N=           6
           0           0           0           0           0           0
MM charges                                 R   N=           6
  0.00000000E+00  0.00000000E+00  0.00000000E+00  0.00000000E+00  0.00000000E+00
  0.00000000E+00
Integer atomic weights                     I   N=           6
          12          16          19          12          16          35
Real atomic weights                        R   N=           6
  1.20000000E+01  1.59949146E+01  1.89984032E+01  1.20000000E+01  1.59949146E+01
  3.49688527E+01
Atom fragment info                         I   N=           6
           0           0           0           0           0           0
Atom residue num                           I   N=           6
           0           0           0           0           0           0
Nuclear spins                              I   N=           6
           0           0           1           0           0           3
Nuclear ZEff                               R   N=           6
 -3.60000000E+00 -5.60000000E+00 -6.75000000E+00 -3.60000000E+00 -5.60000000E+00
 -1.42400000E+01
Nuclear QMom                               R   N=           6
  0.00000000E+00  0.00000000E+00  0.00000000E+00  0.00000000E+00  0.00000000E+00
 -8.16500000E+00
Nuclear GFac                               R   N=           6
  0.00000000E+00  0.00000000E+00  2.62886700E+00  0.00000000E+00  0.00000000E+00
  8.21874000E-01
MicOpt                                     I   N=           6
          -1          -1          -1          -1          -1          -1
Number of contracted shells                I              107
Number of primitive shells                 I              186
Pure/Cartesian d shells                    I                0
Pure/Cartesian f shells                    I                0
Highest angular momentum                   I                4
Largest degree of contraction              I               10
Shell types                                I   N=         107
           0           0           0           0           0           0
           0           1           1           1           1          -2
          -2          -2          -3          -3          -4           0
           0           0           0           0           0           0
           1           1           1           1          -2          -2
          -2          -3          -3          -4           0           0
           0           0           0           0           0           1
           1           1           1          -2          -2          -2
          -3          -3          -4           0           0           0
           0           0           0           0           1           1
           1           1          -2          -2          -2          -3
          -3          -4           0           0           0           0
           0           0           0           1           1           1
           1          -2          -2          -2          -3          -3
          -4           0           0           0           0           0
           0           0           0           0           1           1
           1           1           1           1          -2          -2
          -2          -2          -3          -3          -4
Number of primitives per shell             I   N=         107
           8           2           1           1           1           1
           1           5           1           1           1           1
           1           1           1           1           1           8
           2           1           1           1           1           1
           5           1           1           1           1           1
           1           1           1           1           8           2
           1           1           1           1           1           5
           1           1           1           1           1           1
           1           1           1           8           2           1
           1           1           1           1           5           1
           1           1           1           1           1           1
           1           1           8           2           1           1
           1           1           1           5           1           1
           1           1           1           1           1           1
           1          10           3           1           1           1
           1           1           1           1           8           2
           1           1           1           1           1           1
           1           1           1           1           1
Shell to atom map                          I   N=         107
           1           1           1           1           1           1
           1           1           1           1           1           1
           1           1           1           1           1           2
           2           2           2           2           2           2
           2           2           2           2           2           2
           2           2           2           2           3           3
           3           3           3           3           3           3
           3           3           3           3           3           3
           3           3           3           4           4           4
           4           4           4           4           4           4
           4           4           4           4           4           4
           4           4           5           5           5           5
           5           5           5           5           5           5
           5           5           5           5           5           5
           5           6           6           6           6           6
           6           6           6           6           6           6
           6           6           6           6           6           6
           6           6           6           6           6
Primitive exponents                        R   N=         186
  6.70250710E+04  1.00399865E+04  2.28493169E+03  6.47141221E+02  2.11094723E+02
  7.61776439E+01  2.96338392E+01  1.21877851E+01  5.30260063E+01  1.52585028E+01
  5.24039575E+00  2.29050224E+00  6.96732830E-01  2.75993374E-01  1.07398844E-01
  1.05125551E+02  2.48844611E+01  7.86372308E+00  2.84070018E+00  1.12271373E+00
  4.60507256E-01  1.89375309E-01  7.59837916E-02  1.84800000E+00  6.49000000E-01
  2.28000000E-01  1.41900000E+00  4.85000000E-01  1.01100000E+00  1.16506469E+05
  1.75043497E+04  3.99345132E+03  1.13300632E+03  3.69995696E+02  1.33620743E+02
  5.20356436E+01  2.14619393E+01  8.98350513E+01  2.64280108E+01  9.28228246E+00
  4.09477285E+00  1.32553491E+00  5.18772308E-01  1.97726765E-01  1.91152558E+02
  4.52333567E+01  1.43534659E+01  5.24223718E+00  2.07924186E+00  8.42823714E-01
  3.36176949E-01  1.28639980E-01  3.77500000E+00  1.30000000E+00  4.44000000E-01
  2.66600000E+00  8.59000000E-01  1.84600000E+00  1.32535973E+05  1.97581126E+04
  4.48519969E+03  1.27381510E+03  4.18938312E+02  1.52557220E+02  5.98215248E+01
  2.48190769E+01  1.00744467E+02  3.01037283E+01  1.08142833E+01  4.81728868E+00
  1.65593342E+00  6.48935196E-01  2.47781045E-01  2.40966541E+02  5.70206998E+01
  1.81269521E+01  6.64574046E+00  2.63757229E+00  1.06382172E+00  4.19325628E-01
  1.57475883E-01  5.01400000E+00  1.72500000E+00  5.86000000E-01  3.56200000E+00
  1.14800000E+00  2.37600000E+00  6.70250710E+04  1.00399865E+04  2.28493169E+03
  6.47141221E+02  2.11094723E+02  7.61776439E+01  2.96338392E+01  1.21877851E+01
  5.30260063E+01  1.52585028E+01  5.24039575E+00  2.29050224E+00  6.96732830E-01
  2.75993374E-01  1.07398844E-01  1.05125551E+02  2.48844611E+01  7.86372308E+00
  2.84070018E+00  1.12271373E+00  4.60507256E-01  1.89375309E-01  7.59837916E-02
  1.84800000E+00  6.49000000E-01  2.28000000E-01  1.41900000E+00  4.85000000E-01
  1.01100000E+00  1.16506469E+05  1.75043497E+04  3.99345132E+03  1.13300632E+03
  3.69995696E+02  1.33620743E+02  5.20356436E+01  2.14619393E+01  8.98350513E+01
  2.64280108E+01  9.28228246E+00  4.09477285E+00  1.32553491E+00  5.18772308E-01
  1.97726765E-01  1.91152558E+02  4.52333567E+01  1.43534659E+01  5.24223718E+00
  2.07924186E+00  8.42823714E-01  3.36176949E-01  1.28639980E-01  3.77500000E+00
  1.30000000E+00  4.44000000E-01  2.66600000E+00  8.59000000E-01  1.84600000E+00
  1.46745901E+06  2.19756164E+05  5.00107703E+04  1.41648239E+04  4.62074655E+03
  1.66789916E+03  6.50291993E+02  2.69380374E+02  1.17067521E+02  5.28117668E+01
  4.61427700E+02  1.42126654E+02  5.44378388E+01  2.41607702E+01  9.70835403E+00
  4.56406967E+00  2.11947448E+00  7.57223654E-01  3.37472246E-01  1.38607751E-01
  2.50194579E+03  5.92880593E+02  1.92180892E+02  7.28757105E+01  3.04363584E+01
  1.34901789E+01  6.14780714E+00  2.84509448E+00  1.05393979E+02  6.73697385E+00
  1.24210958E+00  5.56697143E-01  2.33878015E-01  9.31644909E-02  5.19100000E+00
  1.27600000E+00  5.83000000E-01  2.43000000E-01  4.23000000E-01  1.08900000E+00
  8.27000000E-01
Contraction coefficients                   R   N=         186
  7.09883366E-05  5.51759078E-04  2.89330111E-03  1.21111499E-02  4.28226973E-02
  1.29053329E-01  3.18146478E-01  5.91790275E-01  9.13649169E-02  9.28761090E-01
  1.00000000E+00  1.00000000E+00  1.00000000E+00  1.00000000E+00  1.00000000E+00
  2.49653501E-03  1.95463956E-02  8.88349466E-02  2.94789686E-01  7.02715999E-01
  1.00000000E+00  1.00000000E+00  1.00000000E+00  1.00000000E+00  1.00000000E+00
  1.00000000E+00  1.00000000E+00  1.00000000E+00  1.00000000E+00  7.19875758E-05
  5.57148772E-04  2.91300317E-03  1.21720511E-02  4.30037618E-02  1.29647624E-01
  3.19696086E-01  5.89314588E-01  9.48480528E-02  9.25363788E-01  1.00000000E+00
  1.00000000E+00  1.00000000E+00  1.00000000E+00  1.00000000E+00  2.53595741E-03
  2.02338243E-02  9.45180200E-02  3.09154328E-01  6.84689495E-01  1.00000000E+00
  1.00000000E+00  1.00000000E+00  1.00000000E+00  1.00000000E+00  1.00000000E+00
  1.00000000E+00  1.00000000E+00  1.00000000E+00  7.79916549E-05  6.10110499E-04
  3.20126498E-03  1.32609795E-02  4.60714723E-02  1.36167793E-01  3.26765510E-01
  5.73746112E-01  1.02589538E-01  9.18646159E-01  1.00000000E+00  1.00000000E+00
  1.00000000E+00  1.00000000E+00  1.00000000E+00  2.58016156E-03  2.06801706E-02
  9.71525563E-02  3.14685818E-01  6.77445033E-01  1.00000000E+00  1.00000000E+00
  1.00000000E+00  1.00000000E+00  1.00000000E+00  1.00000000E+00  1.00000000E+00
  1.00000000E+00  1.00000000E+00  7.09883366E-05  5.51759078E-04  2.89330111E-03
  1.21111499E-02  4.28226973E-02  1.29053329E-01  3.18146478E-01  5.91790275E-01
  9.13649169E-02  9.28761090E-01  1.00000000E+00  1.00000000E+00  1.00000000E+00
  1.00000000E+00  1.00000000E+00  2.49653501E-03  1.95463956E-02  8.88349466E-02
  2.94789686E-01  7.02715999E-01  1.00000000E+00  1.00000000E+00  1.00000000E+00
  1.00000000E+00  1.00000000E+00  1.00000000E+00  1.00000000E+00  1.00000000E+00
  1.00000000E+00  7.19875758E-05  5.57148772E-04  2.91300317E-03  1.21720511E-02
  4.30037618E-02  1.29647624E-01  3.19696086E-01  5.89314588E-01  9.48480528E-02
  9.25363788E-01  1.00000000E+00  1.00000000E+00  1.00000000E+00  1.00000000E+00
  1.00000000E+00  2.53595741E-03  2.02338243E-02  9.45180200E-02  3.09154328E-01
  6.84689495E-01  1.00000000E+00  1.00000000E+00  1.00000000E+00  1.00000000E+00
  1.00000000E+00  1.00000000E+00  1.00000000E+00  1.00000000E+00  1.00000000E+00
  1.41691358E-05  1.10153736E-04  5.79085777E-04  2.43954093E-03  8.81631050E-03
  2.80873176E-02  7.89540461E-02  1.89251605E-01  3.57824413E-01  4.48692472E-01
  2.27047900E-02  2.07769475E-01  8.05043698E-01  1.00000000E+00  1.00000000E+00
  1.00000000E+00  1.00000000E+00  1.00000000E+00  1.00000000E+00  1.00000000E+00
  2.52084118E-04  2.19197591E-03  1.18881571E-02  4.67477126E-02  1.37232459E-01
  2.85889489E-01  3.98749388E-01  3.00221634E-01 -5.39350233E-02  1.00697887E+00
  1.00000000E+00  1.00000000E+00  1.00000000E+00  1.00000000E+00  1.00000000E+00
  1.00000000E+00  1.00000000E+00  1.00000000E+00  1.00000000E+00  1.00000000E+00
  1.00000000E+00
Coordinates of each shell                  R   N=         321
 -1.82726268E+00 -1.03824613E+00  0.00000000E+00 -1.82726268E+00 -1.03824613E+00
  0.00000000E+00 -1.82726268E+00 -1.03824613E+00  0.00000000E+00 -1.82726268E+00
 -1.03824613E+00  0.00000000E+00 -1.82726268E+00 -1.03824613E+00  0.00000000E+00
 -1.82726268E+00 -1.03824613E+00  0.00000000E+00 -1.82726268E+00 -1.03824613E+00
  0.00000000E+00 -1.82726268E+00 -1.03824613E+00  0.00000000E+00 -1.82726268E+00
 -1.03824613E+00  0.00000000E+00 -1.82726268E+00 -1.03824613E+00  0.00000000E+00
 -1.82726268E+00 -1.03824613E+00  0.00000000E+00 -1.82726268E+00 -1.03824613E+00
  0.00000000E+00 -1.82726268E+00 -1.03824613E+00  0.00000000E+00 -1.82726268E+00
 -1.03824613E+00  0.00000000E+00 -1.82726268E+00 -1.03824613E+00  0.00000000E+00
 -1.82726268E+00 -1.03824613E+00  0.00000000E+00 -1.82726268E+00 -1.03824613E+00
  0.00000000E+00 -4.03780576E+00 -8.42236612E-01  0.00000000E+00 -4.03780576E+00
 -8.42236612E-01  0.00000000E+00 -4.03780576E+00 -8.42236612E-01  0.00000000E+00
 -4.03780576E+00 -8.42236612E-01  0.00000000E+00 -4.03780576E+00 -8.42236612E-01
  0.00000000E+00 -4.03780576E+00 -8.42236612E-01  0.00000000E+00 -4.03780576E+00
 -8.42236612E-01  0.00000000E+00 -4.03780576E+00 -8.42236612E-01  0.00000000E+00
 -4.03780576E+00 -8.42236612E-01  0.00000000E+00 -4.03780576E+00 -8.42236612E-01
  0.00000000E+00 -4.03780576E+00 -8.42236612E-01  0.00000000E+00 -4.03780576E+00
 -8.42236612E-01  0.00000000E+00 -4.03780576E+00 -8.42236612E-01  0.00000000E+00
 -4.03780576E+00 -8.42236612E-01  0.00000000E+00 -4.03780576E+00 -8.42236612E-01
  0.00000000E+00 -4.03780576E+00 -8.42236612E-01  0.00000000E+00 -4.03780576E+00
 -8.42236612E-01  0.00000000E+00 -6.34811036E-01 -3.25997046E+00  0.00000000E+00
 -6.34811036E-01 -3.25997046E+00  0.00000000E+00 -6.34811036E-01 -3.25997046E+00
  0.00000000E+00 -6.34811036E-01 -3.25997046E+00  0.00000000E+00 -6.34811036E-01
 -3.25997046E+00  0.00000000E+00 -6.34811036E-01 -3.25997046E+00  0.00000000E+00
 -6.34811036E-01 -3.25997046E+00  0.00000000E+00 -6.34811036E-01 -3.25997046E+00
  0.00000000E+00 -6.34811036E-01 -3.25997046E+00  0.00000000E+00 -6.34811036E-01
 -3.25997046E+00  0.00000000E+00 -6.34811036E-01 -3.25997046E+00  0.00000000E+00
 -6.34811036E-01 -3.25997046E+00  0.00000000E+00 -6.34811036E-01 -3.25997046E+00
  0.00000000E+00 -6.34811036E-01 -3.25997046E+00  0.00000000E+00 -6.34811036E-01
 -3.25997046E+00  0.00000000E+00 -6.34811036E-01 -3.25997046E+00  0.00000000E+00
 -6.34811036E-01 -3.25997046E+00  0.00000000E+00  0.00000000E+00  1.24881229E+00
  0.00000000E+00  0.00000000E+00  1.24881229E+00  0.00000000E+00  0.00000000E+00
  1.24881229E+00  0.00000000E+00  0.00000000E+00  1.24881229E+00  0.00000000E+00
  0.00000000E+00  1.24881229E+00  0.00000000E+00  0.00000000E+00  1.24881229E+00
  0.00000000E+00  0.00000000E+00  1.24881229E+00  0.00000000E+00  0.00000000E+00
  1.24881229E+00  0.00000000E+00  0.00000000E+00  1.24881229E+00  0.00000000E+00
  0.00000000E+00  1.24881229E+00  0.00000000E+00  0.00000000E+00  1.24881229E+00
  0.00000000E+00  0.00000000E+00  1.24881229E+00  0.00000000E+00  0.00000000E+00
  1.24881229E+00  0.00000000E+00  0.00000000E+00  1.24881229E+00  0.00000000E+00
  0.00000000E+00  1.24881229E+00  0.00000000E+00  0.00000000E+00  1.24881229E+00
  0.00000000E+00  0.00000000E+00  1.24881229E+00  0.00000000E+00 -7.66242783E-01
  3.33823886E+00  0.00000000E+00 -7.66242783E-01  3.33823886E+00  0.00000000E+00
 -7.66242783E-01  3.33823886E+00  0.00000000E+00 -7.66242783E-01  3.33823886E+00
  0.00000000E+00 -7.66242783E-01  3.33823886E+00  0.00000000E+00 -7.66242783E-01
  3.33823886E+00  0.00000000E+00 -7.66242783E-01  3.33823886E+00  0.00000000E+00
 -7.66242783E-01  3.33823886E+00  0.00000000E+00 -7.66242783E-01  3.33823886E+00
  0.00000000E+00 -7.66242783E-01  3.33823886E+00  0.00000000E+00 -7.66242783E-01
  3.33823886E+00  0.00000000E+00 -7.66242783E-01  3.33823886E+00  0.00000000E+00
 -7.66242783E-01  3.33823886E+00  0.00000000E+00 -7.66242783E-01  3.33823886E+00
  0.00000000E+00 -7.66242783E-01  3.33823886E+00  0.00000000E+00 -7.66242783E-01
  3.33823886E+00  0.00000000E+00 -7.66242783E-01  3.33823886E+00  0.00000000E+00
  3.24172140E+00  4.76959953E-01  0.00000000E+00  3.24172140E+00  4.76959953E-01
  0.00000000E+00  3.24172140E+00  4.76959953E-01  0.00000000E+00  3.24172140E+00
  4.76959953E-01  0.00000000E+00  3.24172140E+00  4.76959953E-01  0.00000000E+00
  3.24172140E+00  4.76959953E-01  0.00000000E+00  3.24172140E+00  4.76959953E-01
  0.00000000E+00  3.24172140E+00  4.76959953E-01  0.00000000E+00  3.24172140E+00
  4.76959953E-01  0.00000000E+00  3.24172140E+00  4.76959953E-01  0.00000000E+00
  3.24172140E+00  4.76959953E-01  0.00000000E+00  3.24172140E+00  4.76959953E-01
  0.00000000E+00  3.24172140E+00  4.76959953E-01  0.00000000E+00  3.24172140E+00
  4.76959953E-01  0.00000000E+00  3.24172140E+00  4.76959953E-01  0.00000000E+00
  3.24172140E+00  4.76959953E-01  0.00000000E+00  3.24172140E+00  4.76959953E-01
  0.00000000E+00  3.24172140E+00  4.76959953E-01  0.00000000E+00  3.24172140E+00
  4.76959953E-01  0.00000000E+00  3.24172140E+00  4.76959953E-01  0.00000000E+00
  3.24172140E+00  4.76959953E-01  0.00000000E+00  3.24172140E+00  4.76959953E-01
  0.00000000E+00
Constraint Structure                       R   N=          18
 -1.82726268E+00 -1.03824613E+00  0.00000000E+00 -4.03780576E+00 -8.42236612E-01
  0.00000000E+00 -6.34811036E-01 -3.25997046E+00  0.00000000E+00  0.00000000E+00
  1.24881229E+00  0.00000000E+00 -7.66242783E-01  3.33823886E+00  0.00000000E+00
  3.24172140E+00  4.76959953E-01  0.00000000E+00
Num ILSW                                   I              100
ILSW                                       I   N=         100
           0           0           0           0           2           0
           0           0           0           0         402          -1
           5           0           0           0           0           0
           0           0           1           0           0           0
           1           0           0           0           0           0
           0           0      100000           0          -1           0
           0           0           0           0           0           0
           0           0           0           1           0           0
           0           0           1           0           0           0
           0           0           4          40           0           0
           0           0           5           0           0           0
           0           0           0           0           0           0
           0           0           0           0           0           0
           0           0           0           0           0           0
           0           0           0           0           0           0
           0           0           0           0           0           0
           0           0           0           0
Num RLSW                                   I               40
RLSW                                       R   N=          40
  8.00000000E-01  7.20000000E-01  1.00000000E+00  8.10000000E-01  2.00000000E-01
  0.00000000E+00  0.00000000E+00  1.00000000E+00  0.00000000E+00  0.00000000E+00
  0.00000000E+00  0.00000000E+00  1.00000000E+00  0.00000000E+00  0.00000000E+00
  0.00000000E+00  0.00000000E+00  1.00000000E+00  0.00000000E+00  0.00000000E+00
  0.00000000E+00  0.00000000E+00  1.00000000E+00  0.00000000E+00  0.00000000E+00
  0.00000000E+00  0.00000000E+00  1.00000000E+00  0.00000000E+00  0.00000000E+00
  0.00000000E+00  0.00000000E+00  1.00000000E+00  0.00000000E+00  0.00000000E+00
  0.00000000E+00  0.00000000E+00  0.00000000E+00  1.00000000E+00  1.00000000E+00
ECP-MxAtEC                                 I           250000
ECP-MaxLECP                                I               10
ECP-MaxAtL                                 I          2250000
ECP-MxTECP                                 I         11250000
ECP-LenNCZ                                 I                0
ECP-KFirst                                 I   N=          60
           0           0           0           0           0           0
           0           0           0           0           0           0
           0           0           0           0           0           0
           0           0           0           0           0           0
           0           0           0           0           0           0
           0           0           0           0           0           0
           0           0           0           0           0           0
           0           0           0           0           0           0
           0           0           0           0           0           0
           0           0           0           0           0           0
ECP-KLast                                  I   N=          60
           0           0           0           0           0           0
           0           0           0           0           0           0
           0           0           0           0           0           0
           0           0           0           0           0           0
           0           0           0           0           0           0
           0           0           0           0           0           0
           0           0           0           0           0           0
           0           0           0           0           0           0
           0           0           0           0           0           0
           0           0           0           0           0           0
ECP-LMax                                   I   N=           6
           0           0           0           0           0           0
ECP-LPSkip                                 I   N=           6
           1           1           1           1           1           1
ECP-RNFroz                                 R   N=           6
  0.00000000E+00  0.00000000E+00  0.00000000E+00  0.00000000E+00  0.00000000E+00
  0.00000000E+00
ECP-NLP                                    I                0
ECP-CLP1                                   R      0.000000000000000E+00
ECP-CLP2                                   R      0.000000000000000E+00
ECP-ZLP                                    R      0.000000000000000E+00
MxBond                                     I                3
NBond                                      I   N=           6
           3           1           1           3           1           1
IBond                                      I   N=          18
           2           3           4           1           0           0
           1           0           0           1           5           6
           4           0           0           4           0           0
RBond                                      R   N=          18
  2.00000000E+00  1.00000000E+00  1.00000000E+00  2.00000000E+00  0.00000000E+00
  0.00000000E+00  1.00000000E+00  0.00000000E+00  0.00000000E+00  1.00000000E+00
  2.00000000E+00  1.00000000E+00  2.00000000E+00  0.00000000E+00  0.00000000E+00
  1.00000000E+00  0.00000000E+00  0.00000000E+00
Virial Ratio                               R      2.002546713889734E+00
SCF Energy                                 R     -7.868912563515868E+02
Total Energy                               R     -7.868912563515868E+02
RMS Density                                R      7.052479279467685E-09
External E-field                           R   N=          35
  0.00000000E+00  0.00000000E+00  0.00000000E+00  0.00000000E+00  0.00000000E+00
  0.00000000E+00  0.00000000E+00  0.00000000E+00  0.00000000E+00  0.00000000E+00
  0.00000000E+00  0.00000000E+00  0.00000000E+00  0.00000000E+00  0.00000000E+00
  0.00000000E+00  0.00000000E+00  0.00000000E+00  0.00000000E+00  0.00000000E+00
  0.00000000E+00  0.00000000E+00  0.00000000E+00  0.00000000E+00  0.00000000E+00
  0.00000000E+00  0.00000000E+00  0.00000000E+00  0.00000000E+00  0.00000000E+00
  0.00000000E+00  0.00000000E+00  0.00000000E+00  0.00000000E+00  0.00000000E+00
IOpCl                                      I                0
IROHF                                      I                0
Alpha Orbital Energies                     R   N=         355
 -1.01576653E+02 -2.47567197E+01 -1.92048537E+01 -1.91988305E+01 -1.03955648E+01
 -1.03742741E+01 -9.50810458E+00 -7.26962932E+00 -7.26261355E+00 -7.26080902E+00
 -1.30268996E+00 -1.15046012E+00 -1.12621878E+00 -8.99286498E-01 -7.41665581E-01
 -6.39079578E-01 -5.67868775E-01 -5.58118684E-01 -5.45660715E-01 -5.11782250E-01
 -4.86222100E-01 -4.72690971E-01 -4.29244558E-01 -3.95274590E-01 -3.68756127E-01
 -3.52099864E-01 -3.42469063E-01 -1.37387694E-01 -1.90530761E-02  1.24038384E-03
  4.38018720E-02  6.84267406E-02  9.25896028E-02  9.80028590E-02  1.35978958E-01
  1.53318508E-01  1.57603128E-01  1.58658906E-01  1.69080520E-01  1.88972726E-01
  2.14287743E-01  2.28635816E-01  2.59518908E-01  2.60487694E-01  2.84790382E-01
  2.99059577E-01  3.02621176E-01  3.28753580E-01  3.35342997E-01  3.56609606E-01
  3.62354527E-01  3.73996277E-01  4.01824966E-01  4.18018819E-01  4.73382193E-01
  4.80961304E-01  5.00910761E-01  5.27696671E-01  5.34766272E-01  5.65265185E-01
  5.74137840E-01  6.07624976E-01  6.43361193E-01  6.57560331E-01  6.66016509E-01
  6.98610106E-01  7.05064625E-01  7.33372700E-01  7.80163718E-01  7.82623809E-01
  7.83257006E-01  8.66027854E-01  8.78325866E-01  8.78519544E-01  9.30738249E-01
  9.72384496E-01  1.01773871E+00  1.05991407E+00  1.09284156E+00  1.10774736E+00
  1.11826771E+00  1.12892381E+00  1.16510667E+00  1.18278419E+00  1.18886104E+00
  1.20378402E+00  1.22981077E+00  1.23880242E+00  1.25936575E+00  1.26878853E+00
  1.30694287E+00  1.31420000E+00  1.34365876E+00  1.36344093E+00  1.36648381E+00
  1.37672037E+00  1.39791588E+00  1.45868051E+00  1.48378013E+00  1.50252786E+00
  1.52477907E+00  1.54049699E+00  1.58972164E+00  1.60712704E+00  1.60718322E+00
  1.61756407E+00  1.63942172E+00  1.67384902E+00  1.69019658E+00  1.69113108E+00
  1.73869309E+00  1.75149650E+00  1.77062668E+00  1.78345352E+00  1.82187577E+00
  1.83359078E+00  1.83391178E+00  1.85581749E+00  1.89132346E+00  1.96688806E+00
  1.97905621E+00  2.03545822E+00  2.09218617E+00  2.09261301E+00  2.14987179E+00
  2.18285691E+00  2.21016820E+00  2.21691080E+00  2.23696687E+00  2.29483114E+00
  2.32483761E+00  2.34975571E+00  2.38711444E+00  2.39154631E+00  2.42605191E+00
  2.46027792E+00  2.50612725E+00  2.53667550E+00  2.61038464E+00  2.66676507E+00
  2.75868145E+00  2.79894303E+00  2.81525797E+00  2.88985603E+00  2.99715758E+00
  3.04678234E+00  3.06395844E+00  3.14239594E+00  3.17131483E+00  3.18509620E+00
  3.20028353E+00  3.22462713E+00  3.24732801E+00  3.27798217E+00  3.30021968E+00
  3.35513998E+00  3.36171617E+00  3.44758796E+00  3.48582787E+00  3.53478128E+00
  3.54249138E+00  3.54839964E+00  3.54983043E+00  3.57435455E+00  3.68041285E+00
  3.70868337E+00  3.73476277E+00  3.76385365E+00  3.78636381E+00  3.79217118E+00
  3.79999775E+00  3.82107878E+00  3.85361222E+00  3.86678042E+00  3.86758301E+00
  3.88945283E+00  3.89637871E+00  3.90449085E+00  3.95619795E+00  4.01315057E+00
  4.02310603E+00  4.06934134E+00  4.07149616E+00  4.12594133E+00  4.14100439E+00
  4.16260724E+00  4.17972873E+00  4.20849448E+00  4.22164318E+00  4.22194613E+00
  4.25743851E+00  4.35603020E+00  4.36857598E+00  4.42939630E+00  4.44551053E+00
  4.49031787E+00  4.52508342E+00  4.57363887E+00  4.63018922E+00  4.64053616E+00
  4.64514235E+00  4.69142841E+00  4.71224403E+00  4.75514084E+00  4.79110252E+00
  4.79504752E+00  4.82618148E+00  4.91539355E+00  4.92521410E+00  4.94593680E+00
  5.01866936E+00  5.06281746E+00  5.06768848E+00  5.20721726E+00  5.22816920E+00
  5.31879712E+00  5.33279762E+00  5.38369771E+00  5.40048228E+00  5.48929696E+00
  5.52161510E+00  5.53926926E+00  5.54293630E+00  5.57740804E+00  5.62603655E+00
  5.71675130E+00  5.74399740E+00  5.82484098E+00  5.87011594E+00  5.90407040E+00
  5.93035771E+00  5.96297478E+00  6.00728757E+00  6.02898005E+00  6.11711188E+00