 Entering Gaussian System, Link 0=g09
 Input=OOFCl_b3lyp_0.com
 Output=OOFCl_b3lyp_0.log
 Initial command:
 /opt/g09/g09_d.01/g09/l1.exe /home/diana/Desktop/DFT_test/Alchemi/Gaussian/OOFCl/Gau-7057.inp -scrdir=/home/diana/Desktop/DFT_test/Alchemi/Gaussian/OOFCl/
 Entering Link 1 = /opt/g09/g09_d.01/g09/l1.exe PID=      7059.
  
 Copyright (c) 1988,1990,1992,1993,1995,1998,2003,2009,2013,
            Gaussian, Inc.  All Rights Reserved.
  
 This is part of the Gaussian(R) 09 program.  It is based on
 the Gaussian(R) 03 system (copyright 2003, Gaussian, Inc.),
 the Gaussian(R) 98 system (copyright 1998, Gaussian, Inc.),
 the Gaussian(R) 94 system (copyright 1995, Gaussian, Inc.),
 the Gaussian 92(TM) system (copyright 1992, Gaussian, Inc.),
 the Gaussian 90(TM) system (copyright 1990, Gaussian, Inc.),
 the Gaussian 88(TM) system (copyright 1988, Gaussian, Inc.),
 the Gaussian 86(TM) system (copyright 1986, Carnegie Mellon
 University), and the Gaussian 82(TM) system (copyright 1983,
 Carnegie Mellon University). Gaussian is a federally registered
 trademark of Gaussian, Inc.
  
 This software contains proprietary and confidential information,
 including trade secrets, belonging to Gaussian, Inc.
  
 This software is provided under written license and may be
 used, copied, transmitted, or stored only in accord with that
 written license.
  
 The following legend is applicable only to US Government
 contracts under FAR:
  
                    RESTRICTED RIGHTS LEGEND
  
 Use, reproduction and disclosure by the US Government is
 subject to restrictions as set forth in subparagraphs (a)
 and (c) of the Commercial Computer Software - Restricted
 Rights clause in FAR 52.227-19.
  
 Gaussian, Inc.
 340 Quinnipiac St., Bldg. 40, Wallingford CT 06492
  
  
 ---------------------------------------------------------------
 Warning -- This program may not be used in any manner that
 competes with the business of Gaussian, Inc. or will provide
 assistance to any competitor of Gaussian, Inc.  The licensee
 of this program is prohibited from giving any competitor of
 Gaussian, Inc. access to this program.  By using this program,
 the user acknowledges that Gaussian, Inc. is engaged in the
 business of creating and licensing software in the field of
 computational chemistry and represents and warrants to the
 licensee that it is not a competitor of Gaussian, Inc. and that
 it will not use this program in any manner prohibited above.
 ---------------------------------------------------------------
  

 Cite this work as:
 Gaussian 09, Revision D.01,
 M. J. Frisch, G. W. Trucks, H. B. Schlegel, G. E. Scuseria, 
 M. A. Robb, J. R. Cheeseman, G. Scalmani, V. Barone, B. Mennucci, 
 G. A. Petersson, H. Nakatsuji, M. Caricato, X. Li, H. P. Hratchian, 
 A. F. Izmaylov, J. Bloino, G. Zheng, J. L. Sonnenberg, M. Hada, 
 M. Ehara, K. Toyota, R. Fukuda, J. Hasegawa, M. Ishida, T. Nakajima, 
 Y. Honda, O. Kitao, H. Nakai, T. Vreven, J. A. Montgomery, Jr., 
 J. E. Peralta, F. Ogliaro, M. Bearpark, J. J. Heyd, E. Brothers, 
 K. N. Kudin, V. N. Staroverov, T. Keith, R. Kobayashi, J. Normand, 
 K. Raghavachari, A. Rendell, J. C. Burant, S. S. Iyengar, J. Tomasi, 
 M. Cossi, N. Rega, J. M. Millam, M. Klene, J. E. Knox, J. B. Cross, 
 V. Bakken, C. Adamo, J. Jaramillo, R. Gomperts, R. E. Stratmann, 
 O. Yazyev, A. J. Austin, R. Cammi, C. Pomelli, J. W. Ochterski, 
 R. L. Martin, K. Morokuma, V. G. Zakrzewski, G. A. Voth, 
 P. Salvador, J. J. Dannenberg, S. Dapprich, A. D. Daniels, 
 O. Farkas, J. B. Foresman, J. V. Ortiz, J. Cioslowski, 
 and D. J. Fox, Gaussian, Inc., Wallingford CT, 2013.
 
 ******************************************
 Gaussian 09:  ES64L-G09RevD.01 24-Apr-2013
                26-Jan-2016 
 ******************************************
 %chk=OOFCl_0.chk
 ----------------------------------------------------------------------
 # B3LYP/def2QZVPP Int(Grid=UltraFineGrid) SCF(verytight,maxcycles=1000
 )
 ----------------------------------------------------------------------
 1/38=1/1;
 2/12=2,17=6,18=5,40=1/2;
 3/5=45,7=202,11=2,16=1,25=1,30=1,74=-5,75=-5/1,2,3;
 4//1;
 5/5=2,7=1000,17=3,38=5/2;
 6/7=2,8=2,9=2,10=2,28=1/1;
 99/5=1,9=1/99;
 ----
 TEST
 ----
 Symbolic Z-matrix:
 Charge =  0 Multiplicity = 1
 C                    -0.96695   0.54942   0. 
 O                    -2.13672   0.44569   0. 
 F                    -0.33593   1.7251    0. 
 C                     0.       -0.66084   0. 
 O                    -0.40548  -1.76652   0. 
 Cl                    1.71545  -0.2524    0. 
 
                          Input orientation:                          
 ---------------------------------------------------------------------
 Center     Atomic      Atomic             Coordinates (Angstroms)
 Number     Number       Type             X           Y           Z
 ---------------------------------------------------------------------
      1          6           0       -0.966946    0.549416    0.000000
      2          8           0       -2.136715    0.445692    0.000000
      3          9           0       -0.335928    1.725102    0.000000
      4          6           0        0.000000   -0.660843    0.000000
      5          8           0       -0.405478   -1.766520    0.000000
      6         17           0        1.715445   -0.252396    0.000000
 ---------------------------------------------------------------------
                    Distance matrix (angstroms):
                    1          2          3          4          5
     1  C    0.000000
     2  O    1.174359   0.000000
     3  F    1.334324   2.209010   0.000000
     4  C    1.549100   2.406236   2.409477   0.000000
     5  O    2.383025   2.809104   3.492315   1.177682   0.000000
     6  Cl   2.799665   3.914903   2.849321   1.763400   2.605933
                    6
     6  Cl   0.000000
 Stoichiometry    C2ClFO2
 Framework group  CS[SG(C2ClFO2)]
 Deg. of freedom     9
 Full point group                 CS      NOp   2
 Largest Abelian subgroup         CS      NOp   2
 Largest concise Abelian subgroup C1      NOp   1
                         Standard orientation:                         
 ---------------------------------------------------------------------
 Center     Atomic      Atomic             Coordinates (Angstroms)
 Number     Number       Type             X           Y           Z
 ---------------------------------------------------------------------
      1          6           0       -0.966946   -0.549416    0.000000
      2          8           0       -2.136715   -0.445692    0.000000
      3          9           0       -0.335928   -1.725102    0.000000
      4          6           0        0.000000    0.660843    0.000000
      5          8           0       -0.405478    1.766520    0.000000
      6         17           0        1.715445    0.252396    0.000000
 ---------------------------------------------------------------------
 Rotational constants (GHZ):      4.7928454      2.4395223      1.6166563
 Standard basis: def2QZVPP (5D, 7F)
 There are   298 symmetry adapted cartesian basis functions of A'  symmetry.
 There are   148 symmetry adapted cartesian basis functions of A"  symmetry.
 There are   231 symmetry adapted basis functions of A'  symmetry.
 There are   124 symmetry adapted basis functions of A"  symmetry.
   355 basis functions,   581 primitive gaussians,   446 cartesian basis functions
    27 alpha electrons       27 beta electrons
       nuclear repulsion energy       274.5036504043 Hartrees.
 NAtoms=    6 NActive=    6 NUniq=    6 SFac= 1.00D+00 NAtFMM=   60 NAOKFM=F Big=F
 Integral buffers will be    131072 words long.
 Raffenetti 2 integral format.
 Two-electron integral symmetry is turned on.
 One-electron integrals computed using PRISM.
   1 Symmetry operations used in ECPInt.
 ECPInt:  NShTT=    5778 NPrTT=   17663 LenC2=    5454 LenP2D=   12978.
 LDataN:  DoStor=T MaxTD1= 8 Len=  415
 NBasis=   355 RedAO= T EigKep=  1.22D-04  NBF=   231   124
 NBsUse=   355 1.00D-06 EigRej= -1.00D+00 NBFU=   231   124
 ExpMin= 7.60D-02 ExpMax= 1.47D+06 ExpMxC= 1.67D+03 IAcc=3 IRadAn=         5 AccDes= 0.00D+00
 Harris functional with IExCor=  402 and IRadAn=       5 diagonalized for initial guess.
 HarFok:  IExCor=  402 AccDes= 0.00D+00 IRadAn=         5 IDoV= 1 UseB2=F ITyADJ=14
 ICtDFT=  3500011 ScaDFX=  1.000000  1.000000  1.000000  1.000000
 FoFCou: FMM=F IPFlag=           0 FMFlag=      100000 FMFlg1=           0
         NFxFlg=           0 DoJE=T BraDBF=F KetDBF=T FulRan=T
         wScrn=  0.000000 ICntrl=     500 IOpCl=  0 I1Cent=   200000004 NGrid=           0
         NMat0=    1 NMatS0=      1 NMatT0=    0 NMatD0=    1 NMtDS0=    0 NMtDT0=    0
 Petite list used in FoFCou.
 Initial guess orbital symmetries:
       Occupied  (A') (A') (A') (A') (A') (A') (A') (A') (A') (A")
                 (A') (A') (A') (A') (A') (A') (A') (A') (A") (A')
                 (A") (A') (A") (A') (A') (A") (A')
       Virtual   (A") (A") (A') (A') (A') (A') (A") (A') (A') (A")
                 (A') (A') (A") (A') (A') (A') (A") (A') (A') (A")
                 (A') (A') (A") (A') (A") (A') (A') (A') (A") (A')
                 (A") (A') (A') (A') (A") (A') (A') (A") (A') (A')
                 (A") (A') (A') (A") (A') (A') (A") (A') (A') (A')
                 (A") (A') (A") (A") (A') (A') (A") (A') (A') (A')
                 (A") (A") (A') (A') (A") (A") (A") (A') (A') (A')
                 (A') (A') (A') (A") (A") (A') (A') (A") (A") (A')
                 (A') (A") (A') (A") (A") (A') (A') (A') (A') (A")
                 (A') (A") (A') (A') (A') (A") (A') (A") (A') (A')
                 (A") (A') (A') (A") (A') (A") (A') (A') (A') (A')
                 (A") (A') (A") (A') (A') (A") (A') (A") (A') (A')
                 (A") (A') (A') (A") (A') (A') (A") (A') (A') (A")
                 (A") (A') (A') (A") (A') (A") (A') (A") (A') (A')
                 (A") (A') (A") (A') (A") (A") (A') (A") (A') (A")
                 (A') (A") (A') (A') (A') (A") (A') (A') (A') (A")
                 (A') (A') (A") (A') (A') (A") (A') (A") (A") (A')
                 (A") (A') (A") (A') (A') (A') (A') (A') (A') (A")
                 (A") (A') (A') (A') (A") (A') (A') (A") (A') (A")
                 (A') (A") (A') (A") (A") (A') (A") (A") (A') (A')
                 (A') (A') (A') (A') (A") (A") (A') (A') (A") (A")
                 (A') (A') (A") (A") (A') (A') (A") (A") (A') (A")
                 (A') (A') (A') (A') (A') (A') (A") (A') (A") (A")
                 (A') (A') (A") (A') (A') (A') (A') (A') (A") (A')
                 (A") (A') (A') (A") (A') (A") (A') (A') (A') (A")
                 (A') (A') (A") (A") (A') (A") (A') (A') (A") (A')
                 (A') (A") (A') (A") (A") (A') (A') (A') (A") (A")
                 (A') (A") (A') (A') (A") (A') (A') (A") (A") (A')
                 (A") (A') (A') (A") (A') (A') (A") (A') (A") (A')
                 (A') (A") (A") (A') (A') (A') (A') (A') (A") (A')
                 (A') (A") (A') (A') (A") (A') (A") (A') (A") (A')
                 (A') (A') (A') (A') (A') (A") (A') (A') (A') (A')
                 (A') (A') (A') (A') (A') (A') (A') (A')
 The electronic state of the initial guess is 1-A'.
 Requested convergence on RMS density matrix=1.00D-08 within1000 cycles.
 Requested convergence on MAX density matrix=1.00D-06.
 Requested convergence on             energy=1.00D-06.
 No special actions if energy rises.
 Integral accuracy reduced to 1.0D-05 until final iterations.
 Initial convergence to 1.0D-05 achieved.  Increase integral accuracy.
 SCF Done:  E(RB3LYP) =  -786.891256352     A.U. after   14 cycles
            NFock= 14  Conv=0.71D-08     -V/T= 2.0025

 **********************************************************************

            Population analysis using the SCF density.

 **********************************************************************

 Orbital symmetries:
       Occupied  (A') (A') (A') (A') (A') (A') (A') (A') (A") (A')
                 (A') (A') (A') (A') (A') (A') (A') (A") (A') (A')
                 (A") (A') (A") (A') (A") (A') (A')
       Virtual   (A") (A') (A") (A') (A') (A') (A") (A') (A") (A')
                 (A') (A') (A") (A') (A') (A') (A") (A') (A') (A")
                 (A') (A') (A") (A") (A') (A') (A') (A") (A') (A')
                 (A") (A') (A') (A") (A') (A') (A') (A") (A') (A")
                 (A') (A') (A") (A') (A') (A') (A") (A') (A') (A')
                 (A") (A') (A") (A") (A') (A') (A') (A") (A') (A")
                 (A') (A") (A') (A") (A') (A") (A') (A") (A') (A')
                 (A') (A') (A') (A") (A") (A') (A') (A") (A") (A')
                 (A') (A") (A') (A") (A") (A') (A') (A') (A') (A")
                 (A') (A") (A') (A') (A') (A") (A') (A") (A') (A")
                 (A') (A') (A') (A") (A') (A") (A') (A') (A') (A')
                 (A") (A') (A") (A') (A') (A") (A') (A") (A') (A')
                 (A") (A') (A') (A") (A') (A') (A") (A') (A') (A")
                 (A") (A') (A') (A") (A') (A") (A') (A") (A') (A')
                 (A") (A') (A") (A') (A") (A') (A") (A') (A") (A')
                 (A") (A") (A') (A') (A') (A") (A') (A') (A') (A")
                 (A') (A') (A") (A') (A') (A") (A") (A') (A") (A')
                 (A") (A') (A") (A') (A') (A') (A') (A") (A') (A')
                 (A') (A') (A") (A') (A') (A") (A') (A") (A') (A")
                 (A') (A") (A") (A') (A") (A') (A") (A") (A') (A')
                 (A') (A') (A') (A') (A") (A") (A') (A") (A') (A')
                 (A") (A") (A') (A") (A') (A") (A") (A') (A') (A")
                 (A') (A') (A') (A') (A') (A") (A') (A') (A") (A")
                 (A') (A') (A") (A') (A') (A') (A') (A') (A") (A')
                 (A") (A') (A') (A") (A') (A") (A') (A') (A') (A")
                 (A') (A') (A") (A") (A') (A") (A') (A') (A") (A')
                 (A') (A") (A') (A") (A") (A') (A') (A') (A") (A")
                 (A') (A") (A') (A') (A") (A') (A') (A") (A") (A')
                 (A") (A') (A') (A") (A') (A") (A') (A") (A') (A')
                 (A') (A") (A") (A') (A') (A') (A') (A') (A") (A')
                 (A') (A") (A') (A') (A") (A') (A") (A') (A") (A')
                 (A') (A') (A') (A') (A') (A") (A') (A') (A') (A')
                 (A') (A') (A') (A') (A') (A') (A') (A')
 The electronic state is 1-A'.
 Alpha  occ. eigenvalues -- -101.57665 -24.75672 -19.20485 -19.19883 -10.39556
 Alpha  occ. eigenvalues --  -10.37427  -9.50810  -7.26963  -7.26261  -7.26081
 Alpha  occ. eigenvalues --   -1.30269  -1.15046  -1.12622  -0.89929  -0.74167
 Alpha  occ. eigenvalues --   -0.63908  -0.56787  -0.55812  -0.54566  -0.51178
 Alpha  occ. eigenvalues --   -0.48622  -0.47269  -0.42924  -0.39527  -0.36876
 Alpha  occ. eigenvalues --   -0.35210  -0.34247
 Alpha virt. eigenvalues --   -0.13739  -0.01905   0.00124   0.04380   0.06843
 Alpha virt. eigenvalues --    0.09259   0.09800   0.13598   0.15332   0.15760
 Alpha virt. eigenvalues --    0.15866   0.16908   0.18897   0.21429   0.22864
 Alpha virt. eigenvalues --    0.25952   0.26049   0.28479   0.29906   0.30262
 Alpha virt. eigenvalues --    0.32875   0.33534   0.35661   0.36235   0.37400
 Alpha virt. eigenvalues --    0.40182   0.41802   0.47338   0.48096   0.50091
 Alpha virt. eigenvalues --    0.52770   0.53477   0.56527   0.57414   0.60762
 Alpha virt. eigenvalues --    0.64336   0.65756   0.66602   0.69861   0.70506
 Alpha virt. eigenvalues --    0.73337   0.78016   0.78262   0.78326   0.86603
 Alpha virt. eigenvalues --    0.87833   0.87852   0.93074   0.97238   1.01774
 Alpha virt. eigenvalues --    1.05991   1.09284   1.10775   1.11827   1.12892
 Alpha virt. eigenvalues --    1.16511   1.18278   1.18886   1.20378   1.22981
 Alpha virt. eigenvalues --    1.23880   1.25937   1.26879   1.30694   1.31420
 Alpha virt. eigenvalues --    1.34366   1.36344   1.36648   1.37672   1.39792
 Alpha virt. eigenvalues --    1.45868   1.48378   1.50253   1.52478   1.54050
 Alpha virt. eigenvalues --    1.58972   1.60713   1.60718   1.61756   1.63942
 Alpha virt. eigenvalues --    1.67385   1.69020   1.69113   1.73869   1.75150
 Alpha virt. eigenvalues --    1.77063   1.78345   1.82188   1.83359   1.83391
 Alpha virt. eigenvalues --    1.85582   1.89132   1.96689   1.97906   2.03546
 Alpha virt. eigenvalues --    2.09219   2.09261   2.14987   2.18286   2.21017
 Alpha virt. eigenvalues --    2.21691   2.23697   2.29483   2.32484   2.34976
 Alpha virt. eigenvalues --    2.38711   2.39155   2.42605   2.46028   2.50613
 Alpha virt. eigenvalues --    2.53668   2.61038   2.66677   2.75868   2.79894
 Alpha virt. eigenvalues --    2.81526   2.88986   2.99716   3.04678   3.06396
 Alpha virt. eigenvalues --    3.14240   3.17131   3.18510   3.20028   3.22463
 Alpha virt. eigenvalues --    3.24733   3.27798   3.30022   3.35514   3.36172
 Alpha virt. eigenvalues --    3.44759   3.48583   3.53478   3.54249   3.54840
 Alpha virt. eigenvalues --    3.54983   3.57435   3.68041   3.70868   3.73476
 Alpha virt. eigenvalues --    3.76385   3.78636   3.79217   3.80000   3.82108
 Alpha virt. eigenvalues --    3.85361   3.86678   3.86758   3.88945   3.89638
 Alpha virt. eigenvalues --    3.90449   3.95620   4.01315   4.02311   4.06934
 Alpha virt. eigenvalues --    4.07150   4.12594   4.14100   4.16261   4.17973
 Alpha virt. eigenvalues --    4.20849   4.22164   4.22195   4.25744   4.35603
 Alpha virt. eigenvalues --    4.36858   4.42940   4.44551   4.49032   4.52508
 Alpha virt. eigenvalues --    4.57364   4.63019   4.64054   4.64514   4.69143
 Alpha virt. eigenvalues --    4.71224   4.75514   4.79110   4.79505   4.82618
 Alpha virt. eigenvalues --    4.91539   4.92521   4.94594   5.01867   5.06282
 Alpha virt. eigenvalues --    5.06769   5.20722   5.22817   5.31880   5.33280
 Alpha virt. eigenvalues --    5.38370   5.40048   5.48930   5.52162   5.53927
 Alpha virt. eigenvalues --    5.54294   5.57741   5.62604   5.71675   5.74400
 Alpha virt. eigenvalues --    5.82484   5.87012   5.90407   5.93036   5.96297
 Alpha virt. eigenvalues --    6.00729   6.02898   6.11711   6.12775   6.18426
 Alpha virt. eigenvalues --    6.19534   6.23627   6.25196   6.28243   6.31762
 Alpha virt. eigenvalues --    6.37448   6.39685   6.41854   6.46648   6.50692
 Alpha virt. eigenvalues --    6.63111   6.76269   6.87400   6.94836   7.08047
 Alpha virt. eigenvalues --    7.09205   7.10894   7.29243   7.41276   7.44692
 Alpha virt. eigenvalues --    7.58672   7.62527   7.63996   7.72112   7.86879
 Alpha virt. eigenvalues --    8.13724   8.66900   8.73138   8.80253   8.80403
 Alpha virt. eigenvalues --    8.81894   8.82899   8.99320   9.03785   9.12566
 Alpha virt. eigenvalues --    9.17062   9.35138   9.59431   9.68631   9.77391
 Alpha virt. eigenvalues --    9.85806   9.94348  10.01143  10.18711  10.18924
 Alpha virt. eigenvalues --   10.30015  10.42464  10.48529  10.57991  10.60552
 Alpha virt. eigenvalues --   10.71405  10.71938  10.88660  10.92068  10.95016
 Alpha virt. eigenvalues --   10.95845  11.03162  11.10046  11.26277  11.32002
 Alpha virt. eigenvalues --   11.32102  11.34073  11.37726  11.42424  11.44015
 Alpha virt. eigenvalues --   11.48957  11.65455  11.66682  11.68493  11.75009
 Alpha virt. eigenvalues --   11.80086  11.83056  11.90194  12.00133  12.02862
 Alpha virt. eigenvalues --   12.04440  12.07140  12.12607  12.14968  12.24456
 Alpha virt. eigenvalues --   12.41877  13.13790  13.28609  13.30658  13.64127
 Alpha virt. eigenvalues --   13.77715  14.07551  14.37638  14.50945  14.53200
 Alpha virt. eigenvalues --   14.65056  14.79503  14.86902  14.93573  15.43844
 Alpha virt. eigenvalues --   15.70159  15.76056  15.86595  16.03488  16.28329
 Alpha virt. eigenvalues --   16.61231  16.68355  27.92817  28.19235  28.92132
 Alpha virt. eigenvalues --   41.63961  41.65141  41.74323  47.91732  48.23504
 Alpha virt. eigenvalues --   54.44935  98.38987 146.93988 147.15772 252.93074
 Alpha virt. eigenvalues --  253.28746 285.40293 525.69809
          Condensed to atoms (all electrons):
               1          2          3          4          5          6
     1  C    4.405717   0.696396   0.345599   0.319574  -0.070324  -0.100819
     2  O    0.696396   7.617210  -0.060044  -0.073121   0.010765   0.007560
     3  F    0.345599  -0.060044   8.983159  -0.087271   0.004285   0.003025
     4  C    0.319574  -0.073121  -0.087271   4.686608   0.644509   0.298068
     5  O   -0.070324   0.010765   0.004285   0.644509   7.667130  -0.076812
     6  Cl  -0.100819   0.007560   0.003025   0.298068  -0.076812  16.917395
 Mulliken charges:
               1
     1  C    0.403858
     2  O   -0.198766
     3  F   -0.188752
     4  C    0.211632
     5  O   -0.179554
     6  Cl  -0.048417
 Sum of Mulliken charges =   0.00000
 Mulliken charges with hydrogens summed into heavy atoms:
               1
     1  C    0.403858
     2  O   -0.198766
     3  F   -0.188752
     4  C    0.211632
     5  O   -0.179554
     6  Cl  -0.048417
 Electronic spatial extent (au):  <R**2>=            638.4579
 Charge=              0.0000 electrons
 Dipole moment (field-independent basis, Debye):
    X=              1.3928    Y=             -0.6921    Z=              0.0000  Tot=              1.5553
 Quadrupole moment (field-independent basis, Debye-Ang):
   XX=            -42.4522   YY=            -43.2001   ZZ=            -36.5525
   XY=              0.2049   XZ=              0.0000   YZ=              0.0000
 Traceless Quadrupole moment (field-independent basis, Debye-Ang):
   XX=             -1.7173   YY=             -2.4652   ZZ=              4.1824
   XY=              0.2049   XZ=              0.0000   YZ=              0.0000
 Octapole moment (field-independent basis, Debye-Ang**2):
  XXX=             13.2572  YYY=            -11.4427  ZZZ=              0.0000  XYY=              0.6445
  XXY=             -1.8792  XXZ=              0.0000  XZZ=             -2.7098  YZZ=             -2.2630
  YYZ=              0.0000  XYZ=              0.0000
 Hexadecapole moment (field-independent basis, Debye-Ang**3):
 XXXX=           -449.5732 YYYY=           -274.5102 ZZZZ=            -33.6459 XXXY=            -43.0889
 XXXZ=              0.0000 YYYX=            -36.2199 YYYZ=              0.0000 ZZZX=              0.0000
 ZZZY=              0.0000 XXYY=           -119.7935 XXZZ=            -77.8940 YYZZ=            -47.2216
 XXYZ=              0.0000 YYXZ=              0.0000 ZZXY=            -11.8099
 N-N= 2.745036504043D+02 E-N=-2.413799775543D+03  KE= 7.848923600762D+02
 Symmetry A'   KE= 7.250862417625D+02
 Symmetry A"   KE= 5.980611831377D+01
 1\1\GINC-PC-AVL09\SP\RB3LYP\def2QZVPP\C2Cl1F1O2\DIANA\26-Jan-2016\0\\#
  B3LYP/def2QZVPP Int(Grid=UltraFineGrid) SCF(verytight,maxcycles=1000)
 \\TEST\\0,1\C,0,-0.966946,0.549416,0.\O,0,-2.136715,0.445692,0.\F,0,-0
 .335928,1.725102,0.\C,0,0.,-0.660843,0.\O,0,-0.405478,-1.76652,0.\Cl,0
 ,1.715445,-0.252396,0.\\Version=ES64L-G09RevD.01\State=1-A'\HF=-786.89
 12564\RMSD=7.052e-09\Dipole=0.5479863,0.2722742,0.\Quadrupole=-1.27673
 44,-1.8327933,3.1095277,-0.1523497,0.,0.\PG=CS [SG(C2Cl1F1O2)]\\@


 Money is a good servant but a bad master.
                        -- French Proverb
 Job cpu time:       0 days  0 hours 37 minutes 12.5 seconds.
 File lengths (MBytes):  RWF=     72 Int=      0 D2E=      0 Chk=      5 Scr=      1
 Normal termination of Gaussian 09 at Tue Jan 26 17:18:49 2016.
