H                                                                       
SP        RHF                                                         Gen                 
Number of atoms                            I                3
Info1-9                                    I   N=           9
          25          24           0           0           0         110
           1           1           2
Charge                                     I                0
Multiplicity                               I                1
Number of electrons                        I                4
Number of alpha electrons                  I                2
Number of beta electrons                   I                2
Number of basis functions                  I                9
Number of independent functions            I                9
Number of point charges in /Mol/           I                0
Number of translation vectors              I                0
Atomic numbers                             I   N=           3
           1           2           1
Nuclear charges                            R   N=           3
  1.00000000E+00  2.00000000E+00  1.00000000E+00
Current cartesian coordinates              R   N=           9
  0.00000000E+00  0.00000000E+00  0.00000000E+00  1.88972613E+00  0.00000000E+00
  0.00000000E+00  1.88972613E+00  1.88972613E+00  0.00000000E+00
Force Field                                I                0
Int Atom Types                             I   N=           3
           0           0           0
MM charges                                 R   N=           3
  0.00000000E+00  0.00000000E+00  0.00000000E+00
Integer atomic weights                     I   N=           3
           1           4           1
Real atomic weights                        R   N=           3
  1.00782504E+00  4.00260325E+00  1.00782504E+00
Atom fragment info                         I   N=           3
           0           0           0
Atom residue num                           I   N=           3
           0           0           0
Nuclear spins                              I   N=           3
           1           0           1
Nuclear ZEff                               R   N=           3
 -1.00000000E+00 -2.00000000E+00 -1.00000000E+00
Nuclear ZNuc                               R   N=           3
  1.00000000E+00  2.00000000E+00  1.00000000E+00
Nuclear QMom                               R   N=           3
  0.00000000E+00  0.00000000E+00  0.00000000E+00
Nuclear GFac                               R   N=           3
  2.79284600E+00  0.00000000E+00  2.79284600E+00
MicOpt                                     I   N=           3
          -1          -1          -1
Number of contracted shells                I                5
Number of primitive shells                 I                7
Pure/Cartesian d shells                    I                1
Pure/Cartesian f shells                    I                1
Highest angular momentum                   I                1
Largest degree of contraction              I                3
Shell types                                I   N=           5
           0           1           0           0           1
Number of primitives per shell             I   N=           5
           1           1           3           1           1
Shell to atom map                          I   N=           5
           1           1           2           3           3
Primitive exponents                        R   N=           7
  5.00000000E-01  2.00000000E-01  8.26400000E+01  1.24100000E+01  2.82400000E+00
  5.00000000E-01  2.00000000E-01
Contraction coefficients                   R   N=           7
  1.00000000E+00  1.00000000E+00  2.29507578E-02  1.75540118E-01  8.64703551E-01
  1.00000000E+00  1.00000000E+00
Coordinates of each shell                  R   N=          15
  0.00000000E+00  0.00000000E+00  0.00000000E+00  0.00000000E+00  0.00000000E+00
  0.00000000E+00  1.88972613E+00  0.00000000E+00  0.00000000E+00  1.88972613E+00
  1.88972613E+00  0.00000000E+00  1.88972613E+00  1.88972613E+00  0.00000000E+00
Constraint Structure                       R   N=           9
  0.00000000E+00  0.00000000E+00  0.00000000E+00  1.88972613E+00  0.00000000E+00
  0.00000000E+00  1.88972613E+00  1.88972613E+00  0.00000000E+00
Num ILSW                                   I              100
ILSW                                       I   N=         100
           0           1           0           0           2           0
           0           0           0           0           0          -1
           5           0           0           1           0           0
           0           0           1           0           0           0
           1           1           0           0           0           0
           0           0      100000           0          -1           0
           0           0           0           0           0           0
           0           0           0           1           0           0
           0           0           1           0           0           0
           0           0           4          41           0           0
           0           0           0           0           0           0
           0           0           0           0           0           0
           0           0           0           0           0           0
           0           0           0           0           0           0
           0           0           0           0           0           0
           0           0           0           0           0           0
           0           0           0           0
Num RLSW                                   I               41
RLSW                                       R   N=          41
  1.00000000E+00  1.00000000E+00  1.00000000E+00  1.00000000E+00  1.00000000E+00
  0.00000000E+00  0.00000000E+00  1.00000000E+00  0.00000000E+00  0.00000000E+00
  0.00000000E+00  0.00000000E+00  1.00000000E+00  0.00000000E+00  0.00000000E+00
  0.00000000E+00  0.00000000E+00  1.00000000E+00  0.00000000E+00  0.00000000E+00
  0.00000000E+00  0.00000000E+00  1.00000000E+00  0.00000000E+00  0.00000000E+00
  0.00000000E+00  0.00000000E+00  1.00000000E+00  0.00000000E+00  0.00000000E+00
  0.00000000E+00  0.00000000E+00  0.00000000E+00  0.00000000E+00  0.00000000E+00
  0.00000000E+00  0.00000000E+00  0.00000000E+00  1.00000000E+00  1.00000000E+00
  0.00000000E+00
MxBond                                     I                1
NBond                                      I   N=           3
           0           0           0
IBond                                      I   N=           3
           0           0           0
RBond                                      R   N=           3
  0.00000000E+00  0.00000000E+00  0.00000000E+00
Virial Ratio                               R      1.685719032204752E+00
SCF Energy                                 R     -2.898264651761064E+00
Total Energy                               R     -2.898264651761064E+00
RMS Density                                R      2.314806872307716E-11
External E-field                           R   N=          35
  0.00000000E+00  0.00000000E+00  0.00000000E+00  0.00000000E+00  0.00000000E+00
  0.00000000E+00  0.00000000E+00  0.00000000E+00  0.00000000E+00  0.00000000E+00
  0.00000000E+00  0.00000000E+00  0.00000000E+00  0.00000000E+00  0.00000000E+00
  0.00000000E+00  0.00000000E+00  0.00000000E+00  0.00000000E+00  0.00000000E+00
  0.00000000E+00  0.00000000E+00  0.00000000E+00  0.00000000E+00  0.00000000E+00
  0.00000000E+00  0.00000000E+00  0.00000000E+00  0.00000000E+00  0.00000000E+00
  0.00000000E+00  0.00000000E+00  0.00000000E+00  0.00000000E+00  0.00000000E+00
IOpCl                                      I                0
IROHF                                      I                0
Alpha Orbital Energies                     R   N=           9
 -1.01606707E+00 -1.95689193E-01  1.43456109E-01  3.19051560E-01  4.85467282E-01
  5.20346533E-01  5.60434648E-01  6.84947548E-01  1.59501949E+00
Alpha MO coefficients                      R   N=          81
  3.22166540E-01  2.85440761E-01 -1.47414154E-02 -1.18881462E-16  4.46395504E-01
  3.22166540E-01  1.47414154E-02 -2.85440761E-01  8.07139658E-17  4.90420575E-01
 -1.64430416E-01 -3.47547925E-01 -4.96178805E-16  1.66046988E-16 -4.90420575E-01
 -3.47547925E-01 -1.64430416E-01 -3.38803302E-16  5.13870906E-01 -3.59555245E-01
  1.77659689E-01  3.86082255E-16 -1.75178051E-01  5.13870906E-01 -1.77659689E-01
  3.59555245E-01 -3.65259691E-16 -3.34819122E-16 -2.39850006E-16 -3.42630264E-16
  5.79366638E-01 -1.92859529E-17  3.82635009E-16 -1.98529398E-16 -2.30328339E-16
  5.79366638E-01 -4.04508474E-01  2.29448916E-01  6.26501767E-01 -5.13214465E-15
  9.97294772E-02 -4.04508474E-01 -6.26501767E-01 -2.29448916E-01  5.33575008E-15
  8.55526524E-02  8.33508483E-01 -5.34670369E-01 -7.27850492E-15  1.81770805E-16
 -8.55526524E-02 -5.34670369E-01  8.33508483E-01  7.38851708E-15 -3.17926819E-15
  8.03638220E-15 -1.19927210E-15  9.89737441E-01  7.38215979E-16 -2.95116244E-15
 -8.63766552E-15  4.58729154E-15 -9.89737441E-01  8.92524434E-01  5.63926343E-01
  7.95691341E-01  1.51744293E-15 -5.18033080E-16 -8.92524434E-01  7.95691341E-01
  5.63926343E-01 -7.64163532E-16 -6.64453656E-02 -4.47365269E-01 -3.47858492E-02
 -2.58676050E-18  9.38754457E-01 -6.64453656E-02  3.47858492E-02  4.47365269E-01
  7.11520973E-17
Total SCF Density                          R   N=          45
  6.88607240E-01  2.26388064E-02  2.17027580E-01 -3.50387688E-01  1.05879298E-01
  2.42013738E-01 -5.63271849E-16  9.53065446E-17  3.48396790E-16  5.20652417E-31
  2.87627390E-01  2.54838945E-01 -1.31610031E-02 -1.06136301E-16  3.98537892E-01
 -2.73442122E-01  3.45199044E-01  3.31390925E-01  4.10073331E-16  2.87627390E-01
  6.88607240E-01 -3.31390925E-01  1.22710502E-01  2.41144501E-01  3.41386866E-16
  1.31610031E-02  3.50387688E-01  2.42013738E-01 -3.45199044E-01 -1.08878133E-01
  1.22710502E-01  2.31041005E-16 -2.54838945E-01 -2.26388064E-02  1.05879298E-01
  2.17027580E-01 -2.80305542E-16  1.57497248E-16  2.33121093E-16  3.17023246E-31
  7.20607029E-17  3.84318899E-16  2.37880445E-16  6.53410242E-17  2.42604843E-31
Mulliken Charges                           R   N=           3
 -6.98192533E-01  1.39638507E+00 -6.98192533E-01
ONIOM Charges                              I   N=          16
           0           0           0           0           0           0
           0           0           0           0           0           0
           0           0           0           0
ONIOM Multiplicities                       I   N=          16
           1           0           0           0           0           0
           0           0           0           0           0           0
           0           0           0           0
Atom Layers                                I   N=           3
           1           1           1
Atom Modifiers                             I   N=           3
           0           0           0
Force Field                                I                0
Int Atom Modified Types                    I   N=           3
           0           0           0
Link Atoms                                 I   N=           3
           0           0           0
Atom Modified MM Charges                   R   N=           3
  0.00000000E+00  0.00000000E+00  0.00000000E+00
Link Distances                             R   N=          12
  0.00000000E+00  0.00000000E+00  0.00000000E+00  0.00000000E+00  0.00000000E+00
  0.00000000E+00  0.00000000E+00  0.00000000E+00  0.00000000E+00  0.00000000E+00
  0.00000000E+00  0.00000000E+00
Cartesian Gradient                         R   N=           9
  0.00000000E+00  0.00000000E+00  0.00000000E+00  0.00000000E+00  0.00000000E+00
  0.00000000E+00  0.00000000E+00  0.00000000E+00  0.00000000E+00
Dipole Moment                              R   N=           3
  4.09442834E-01 -4.09442834E-01  3.14838603E-16
Quadrupole Moment                          R   N=           6
  2.16306749E-01 -1.33116290E+00  1.11485615E+00 -3.12333465E+00 -2.23829415E-15
 -2.39998869E-15
QEq coupling tensors                       R   N=          18
 -2.73772807E-01  2.41574533E-02  1.43346386E-01  0.00000000E+00  0.00000000E+00
  1.30426421E-01  4.96248948E-03  1.05376903E-01  4.96248948E-03  0.00000000E+00
  0.00000000E+00 -9.92497897E-03  1.43346386E-01  2.41574533E-02 -2.73772807E-01
  0.00000000E+00  0.00000000E+00  1.30426421E-01
