 argument  1 = h3.inp
                                         
                                         


              Northwest Computational Chemistry Package (NWChem) 6.6
              ------------------------------------------------------


                    Environmental Molecular Sciences Laboratory
                       Pacific Northwest National Laboratory
                                Richland, WA 99352

                              Copyright (c) 1994-2015
                       Pacific Northwest National Laboratory
                            Battelle Memorial Institute

             NWChem is an open-source computational chemistry package
                        distributed under the terms of the
                      Educational Community License (ECL) 2.0
             A copy of the license is included with this distribution
                              in the LICENSE.TXT file

                                  ACKNOWLEDGMENT
                                  --------------

            This software and its documentation were developed at the
            EMSL at Pacific Northwest National Laboratory, a multiprogram
            national laboratory, operated for the U.S. Department of Energy
            by Battelle under Contract Number DE-AC05-76RL01830. Support
            for this work was provided by the Department of Energy Office
            of Biological and Environmental Research, Office of Basic
            Energy Sciences, and the Office of Advanced Scientific Computing.


           Job information
           ---------------

    hostname        = R700
    program         = nwchem
    date            = Tue Jan 19 11:14:13 2016

    compiled        = Thu_Oct_22_13:27:42_2015
    source          = /home/samio/src/quantumChemistry/nwchem-6.6
    nwchem branch   = 6.6
    nwchem revision = 27746
    ga revision     = 10594
    input           = h3.inp
    prefix          = h3.
    data base       = ./h3.db
    status          = startup
    nproc           =        1
    time left       =     -1s



           Memory information
           ------------------

    heap     =   13107194 doubles =    100.0 Mbytes
    stack    =   13107195 doubles =    100.0 Mbytes
    global   =   26214400 doubles =    200.0 Mbytes (distinct from heap & stack)
    total    =   52428789 doubles =    400.0 Mbytes
    verify   = yes
    hardfail = no 


           Directory information
           ---------------------

  0 permanent = .
  0 scratch   = .




                                NWChem Input Module
                                -------------------



 Scaling coordinates for geometry "geometry" by  1.889725989
 (inverse scale =  0.529177249)

 Turning off AUTOSYM since
 SYMMETRY directive was detected!


          ------
          auto-z
          ------
     1 autoz failed with cvr_scaling = 1.2 changing to 1.3


                             Geometry "geometry" -> ""
                             -------------------------

 Output coordinates in angstroms (scale by  1.889725989 to convert to a.u.)

  No.       Tag          Charge          X              Y              Z
 ---- ---------------- ---------- -------------- -------------- --------------
    1 H                    1.0000     0.00000000     0.00000000     0.00000000
    2 H                    1.0000     1.00000000     0.00000000     0.00000000
    3 H                    1.0000     1.00000000     1.00000000     0.00000000

      Atomic Mass 
      ----------- 

      H                  1.007825


 Effective nuclear repulsion energy (a.u.)       1.4325393192

            Nuclear Dipole moment (a.u.) 
            ----------------------------
        X                 Y               Z
 ---------------- ---------------- ----------------
     3.7794519772     1.8897259886     0.0000000000



                                Z-matrix (autoz)
                                -------- 

 Units are Angstrom for bonds and degrees for angles

      Type          Name      I     J     K     L     M      Value
      ----------- --------  ----- ----- ----- ----- ----- ----------
    1 Stretch                  1     2                       1.00000
    2 Stretch                  2     3                       1.00000
    3 Bend                     1     2     3                90.00000


            XYZ format geometry
            -------------------
     3
 geometry
 H                     0.00000000     0.00000000     0.00000000
 H                     1.00000000     0.00000000     0.00000000
 H                     1.00000000     1.00000000     0.00000000

                      Basis "ao basis" -> "" (cartesian)
                      -----
  H (Hydrogen)
  ------------
            Exponent  Coefficients 
       -------------- ---------------------------------------------------------
  1 S  1.30100000E+01  0.019685
  1 S  1.96200000E+00  0.137977
  1 S  4.44600000E-01  0.478148

  2 S  1.22000000E-01  1.000000

  3 S  2.97400000E-02  1.000000

  4 P  7.27000000E-01  1.000000

  5 P  1.41000000E-01  1.000000



 Summary of "ao basis" -> "" (cartesian)
 ------------------------------------------------------------------------------
       Tag                 Description            Shells   Functions and Types
 ---------------- ------------------------------  ------  ---------------------
 H                       user specified              5        9   3s2p


                                 NWChem SCF Module
                                 -----------------



  ao basis        = "ao basis"
  functions       =    27
  atoms           =     3
  closed shells   =     1
  open shells     =     0
  charge          =   1.00
  wavefunction    = RHF 
  input vectors   = atomic
  output vectors  = ./h3.movecs
  use symmetry    = F
  symmetry adapt  = F


 Summary of "ao basis" -> "ao basis" (cartesian)
 ------------------------------------------------------------------------------
       Tag                 Description            Shells   Functions and Types
 ---------------- ------------------------------  ------  ---------------------
 H                       user specified              5        9   3s2p



 Forming initial guess at       0.0s


      Superposition of Atomic Density Guess
      -------------------------------------

 Sum of atomic energies:          -1.49800389

 Renormalizing density from       3.00 to      2

      Non-variational initial energy
      ------------------------------

 Total energy =      -0.730212
 1-e energy   =      -2.805132
 2-e energy   =       0.642381
 HOMO         =      -0.987780
 LUMO         =      -0.415082


 Starting SCF solution at       0.1s



 ----------------------------------------------
         Quadratically convergent ROHF

 Convergence threshold     :          1.000E-04
 Maximum no. of iterations :           30
 Final Fock-matrix accuracy:          1.000E-07
 ----------------------------------------------


 #quartets = 7.260D+03 #integrals = 3.466D+04 #direct =  0.0% #cached =100.0%


 Integral file          = ./h3.aoints.0
 Record size in doubles =  65536        No. of integs per rec  =  43688
 Max. records in memory =      4        Max. records in file   =  13455
 No. of bits per label  =      8        No. of bits per value  =     64


              iter       energy          gnorm     gmax       time
             ----- ------------------- --------- --------- --------
                 1       -1.2493171093  1.46D-01  8.96D-02      0.1
                 2       -1.2521591096  6.68D-03  4.37D-03      0.1
                 3       -1.2521637028  1.49D-05  9.45D-06      0.1


       Final RHF  results 
       ------------------ 

         Total SCF energy =     -1.252163702831
      One-electron energy =     -3.290859633899
      Two-electron energy =      0.606156611850
 Nuclear repulsion energy =      1.432539319217

        Time for solution =      0.0s


             Final eigenvalues
             -----------------

              1      
    1   -1.0393
    2   -0.2986
    3   -0.1742
    4   -0.1202
    5   -0.0672
    6   -0.0568
    7   -0.0362
    8    0.0875
    9    0.1215
   10    0.1370
   11    0.1442

                       ROHF Final Molecular Orbital Analysis
                       -------------------------------------

 Vector    1  Occ=2.000000D+00  E=-1.039273D+00
              MO Center=  7.0D-01,  3.0D-01,  3.3D-17, r^2= 7.8D-01
   Bfn.  Coefficient  Atom+Function         Bfn.  Coefficient  Atom+Function  
  ----- ------------  ---------------      ----- ------------  ---------------
    10      0.393913  2 H  s                  1      0.309507  1 H  s          
    19      0.309507  3 H  s          

 Vector    2  Occ=0.000000D+00  E=-2.985612D-01
              MO Center=  5.5D-01,  4.5D-01,  1.1D-17, r^2= 2.1D+00
   Bfn.  Coefficient  Atom+Function         Bfn.  Coefficient  Atom+Function  
  ----- ------------  ---------------      ----- ------------  ---------------
     2      0.545208  1 H  s                 20     -0.545208  3 H  s          
     1      0.391189  1 H  s                 19     -0.391189  3 H  s          
     3      0.193076  1 H  s                 21     -0.193076  3 H  s          

 Vector    3  Occ=0.000000D+00  E=-1.741627D-01
              MO Center=  4.0D-01,  6.0D-01, -7.9D-17, r^2= 4.3D+00
   Bfn.  Coefficient  Atom+Function         Bfn.  Coefficient  Atom+Function  
  ----- ------------  ---------------      ----- ------------  ---------------
    12      1.505081  2 H  s                 11      0.972320  2 H  s          
     3     -0.870822  1 H  s                 21     -0.870822  3 H  s          
     2     -0.536875  1 H  s                 20     -0.536875  3 H  s          
    10      0.292832  2 H  s          

 Vector    4  Occ=0.000000D+00  E=-1.201896D-01
              MO Center=  1.2D+00, -1.7D-01, -2.0D-16, r^2= 8.9D+00
   Bfn.  Coefficient  Atom+Function         Bfn.  Coefficient  Atom+Function  
  ----- ------------  ---------------      ----- ------------  ---------------
    12      1.102547  2 H  s                  2     -0.238624  1 H  s          
    20     -0.238624  3 H  s          

 Vector    5  Occ=0.000000D+00  E=-6.719522D-02
              MO Center=  4.9D-01,  5.1D-01, -5.6D-17, r^2= 1.4D+01
   Bfn.  Coefficient  Atom+Function         Bfn.  Coefficient  Atom+Function  
  ----- ------------  ---------------      ----- ------------  ---------------
     3      2.558826  1 H  s                 21     -2.558826  3 H  s          
     2     -0.630629  1 H  s                 20      0.630629  3 H  s          
     1     -0.161762  1 H  s                 19      0.161762  3 H  s          

 Vector    6  Occ=0.000000D+00  E=-5.681160D-02
              MO Center=  6.3D-01,  3.7D-01,  1.7D-16, r^2= 2.7D+00
   Bfn.  Coefficient  Atom+Function         Bfn.  Coefficient  Atom+Function  
  ----- ------------  ---------------      ----- ------------  ---------------
     9      0.409357  1 H  pz                27      0.409357  3 H  pz         
    18      0.271824  2 H  pz         

 Vector    7  Occ=0.000000D+00  E=-3.616458D-02
              MO Center=  5.2D-01,  4.8D-01, -6.1D-17, r^2= 1.2D+01
   Bfn.  Coefficient  Atom+Function         Bfn.  Coefficient  Atom+Function  
  ----- ------------  ---------------      ----- ------------  ---------------
    12      4.738045  2 H  s                  3     -2.511157  1 H  s          
    21     -2.511157  3 H  s                 11     -2.477610  2 H  s          
     2      1.380720  1 H  s                 20      1.380720  3 H  s          
    16      0.239710  2 H  px                17     -0.239710  2 H  py         
    10     -0.232601  2 H  s                  7      0.185913  1 H  px         

 Vector    8  Occ=0.000000D+00  E= 8.751971D-02
              MO Center=  7.0D-01,  3.0D-01, -9.8D-18, r^2= 4.9D+00
   Bfn.  Coefficient  Atom+Function         Bfn.  Coefficient  Atom+Function  
  ----- ------------  ---------------      ----- ------------  ---------------
    11      1.850038  2 H  s                  2     -1.582253  1 H  s          
    20     -1.582253  3 H  s                 12      0.698532  2 H  s          
     8      0.685916  1 H  py                25     -0.685916  3 H  px         
    16     -0.343925  2 H  px                17      0.343925  2 H  py         

 Vector    9  Occ=0.000000D+00  E= 1.214630D-01
              MO Center=  5.6D-01,  4.4D-01, -2.0D-16, r^2= 3.8D+00
   Bfn.  Coefficient  Atom+Function         Bfn.  Coefficient  Atom+Function  
  ----- ------------  ---------------      ----- ------------  ---------------
     2      0.817382  1 H  s                 20     -0.817382  3 H  s          
     8      0.624842  1 H  py                25      0.624842  3 H  px         
     7     -0.535111  1 H  px                26     -0.535111  3 H  py         
    16      0.421300  2 H  px                17      0.421300  2 H  py         

 Vector   10  Occ=0.000000D+00  E= 1.369712D-01
              MO Center=  5.0D-01,  5.0D-01, -2.9D-16, r^2= 3.8D+00
   Bfn.  Coefficient  Atom+Function         Bfn.  Coefficient  Atom+Function  
  ----- ------------  ---------------      ----- ------------  ---------------
     9      1.129365  1 H  pz                27     -1.129365  3 H  pz         

 Vector   11  Occ=0.000000D+00  E= 1.441758D-01
              MO Center=  8.7D-01,  1.3D-01, -3.3D-17, r^2= 5.4D+00
   Bfn.  Coefficient  Atom+Function         Bfn.  Coefficient  Atom+Function  
  ----- ------------  ---------------      ----- ------------  ---------------
     2      1.268376  1 H  s                 20      1.268376  3 H  s          
    16      1.224979  2 H  px                17     -1.224979  2 H  py         
    11     -0.663714  2 H  s                  8      0.478340  1 H  py         
    25     -0.478340  3 H  px                12     -0.467700  2 H  s          
     7     -0.269702  1 H  px                26      0.269702  3 H  py         

 Vector   12  Occ=0.000000D+00  E= 1.849510D-01
              MO Center=  8.7D-01,  1.3D-01, -2.7D-16, r^2= 3.7D+00
   Bfn.  Coefficient  Atom+Function         Bfn.  Coefficient  Atom+Function  
  ----- ------------  ---------------      ----- ------------  ---------------
    18      2.008472  2 H  pz                 9     -1.054274  1 H  pz         
    27     -1.054274  3 H  pz         

 Vector   13  Occ=0.000000D+00  E= 2.741067D-01
              MO Center=  6.1D-01,  3.9D-01, -2.9D-16, r^2= 5.8D+00
   Bfn.  Coefficient  Atom+Function         Bfn.  Coefficient  Atom+Function  
  ----- ------------  ---------------      ----- ------------  ---------------
     8      2.033889  1 H  py                25      2.033889  3 H  px         
    16     -1.421268  2 H  px                17     -1.421268  2 H  py         
     3      1.195972  1 H  s                 21     -1.195972  3 H  s          
     7      0.457219  1 H  px                26      0.457219  3 H  py         
     1      0.317179  1 H  s                 19     -0.317179  3 H  s          

 Vector   14  Occ=0.000000D+00  E= 3.249620D-01
              MO Center=  6.3D-01,  3.7D-01,  3.1D-16, r^2= 5.1D+00
   Bfn.  Coefficient  Atom+Function         Bfn.  Coefficient  Atom+Function  
  ----- ------------  ---------------      ----- ------------  ---------------
    11     29.239220  2 H  s                  2    -14.737012  1 H  s          
    20    -14.737012  3 H  s                  7     -5.278960  1 H  px         
    16     -5.278597  2 H  px                17      5.278597  2 H  py         
    26      5.278960  3 H  py                12     -1.578648  2 H  s          
     3      0.847158  1 H  s                 21      0.847158  3 H  s          

 Vector   15  Occ=0.000000D+00  E= 3.752731D-01
              MO Center=  8.2D-01,  1.8D-01,  1.9D-16, r^2= 4.7D+00
   Bfn.  Coefficient  Atom+Function         Bfn.  Coefficient  Atom+Function  
  ----- ------------  ---------------      ----- ------------  ---------------
     2     15.350253  1 H  s                 20    -15.350253  3 H  s          
     7      6.022691  1 H  px                26      6.022691  3 H  py         
    16      5.243279  2 H  px                17      5.243279  2 H  py         
     8      0.748892  1 H  py                25      0.748892  3 H  px         

 Vector   16  Occ=0.000000D+00  E= 4.900541D-01
              MO Center=  7.6D-01,  2.4D-01, -3.0D-17, r^2= 3.0D+00
   Bfn.  Coefficient  Atom+Function         Bfn.  Coefficient  Atom+Function  
  ----- ------------  ---------------      ----- ------------  ---------------
    12      1.196930  2 H  s                 10      1.178424  2 H  s          
     7     -0.869062  1 H  px                26      0.869062  3 H  py         
     3     -0.521986  1 H  s                 21     -0.521986  3 H  s          
    16      0.348632  2 H  px                17     -0.348632  2 H  py         
     1      0.343651  1 H  s                 19      0.343651  3 H  s          

 Vector   17  Occ=0.000000D+00  E= 4.930784D-01
              MO Center=  4.8D-01,  5.2D-01, -3.6D-16, r^2= 3.6D+00
   Bfn.  Coefficient  Atom+Function         Bfn.  Coefficient  Atom+Function  
  ----- ------------  ---------------      ----- ------------  ---------------
     2      6.587911  1 H  s                 20     -6.587911  3 H  s          
     7      2.140802  1 H  px                26      2.140802  3 H  py         
     8      1.765895  1 H  py                25      1.765895  3 H  px         
     1     -0.868991  1 H  s                 19      0.868991  3 H  s          
     3     -0.791138  1 H  s                 21      0.791138  3 H  s          

 Vector   18  Occ=0.000000D+00  E= 5.994008D-01
              MO Center=  7.1D-01,  2.9D-01, -1.4D-16, r^2= 2.8D+00
   Bfn.  Coefficient  Atom+Function         Bfn.  Coefficient  Atom+Function  
  ----- ------------  ---------------      ----- ------------  ---------------
    11      9.936377  2 H  s                  2     -4.539315  1 H  s          
    20     -4.539315  3 H  s                 16     -2.585574  2 H  px         
    17      2.585574  2 H  py                 7     -1.818375  1 H  px         
    26      1.818375  3 H  py                 1     -0.971904  1 H  s          
    19     -0.971904  3 H  s                 12      0.893927  2 H  s          


 center of mass
 --------------
 x =   1.25981733 y =   0.62990866 z =   0.00000000

 moments of inertia (a.u.)
 ------------------
           2.399338593437          -1.199669296718           0.000000000000
          -1.199669296718           2.399338593437           0.000000000000
           0.000000000000           0.000000000000           4.798677186874

  Mulliken analysis of the total density
  --------------------------------------

    Atom       Charge   Shell Charges
 -----------   ------   -------------------------------------------------------
    1 H    1     0.62   0.42  0.16 -0.00  0.02  0.03
    2 H    1     0.75   0.65  0.08  0.00  0.02  0.01
    3 H    1     0.62   0.42  0.16 -0.00  0.02  0.03

       Multipole analysis of the density wrt the origin
       ------------------------------------------------

     L   x y z        total         open         nuclear
     -   - - -        -----         ----         -------
     0   0 0 0      1.000000      0.000000      3.000000

     1   1 0 0      1.123995      0.000000      3.779452
     1   0 1 0      0.765731      0.000000      1.889726
     1   0 0 1     -0.000000      0.000000      0.000000

     2   2 0 0      1.493711      0.000000      7.142129
     2   1 1 0      1.719154      0.000000      3.571064
     2   1 0 1     -0.000000      0.000000      0.000000
     2   0 2 0      0.816689      0.000000      3.571064
     2   0 1 1     -0.000000      0.000000      0.000000
     2   0 0 2     -1.349954      0.000000      0.000000


 Parallel integral file used       1 records with       0 large values


 Task  times  cpu:        0.1s     wall:        0.1s
 Summary of allocated global arrays
-----------------------------------
  No active global arrays



                         GA Statistics for process    0
                         ------------------------------

       create   destroy   get      put      acc     scatter   gather  read&inc
calls:  119      119     1276      846      630        0        0       81     
number of processes/call 1.00e+00 1.00e+00 1.00e+00 0.00e+00 0.00e+00
bytes total:             1.03e+06 6.52e+05 1.23e+05 0.00e+00 0.00e+00 3.24e+02
bytes remote:            0.00e+00 0.00e+00 0.00e+00 0.00e+00 0.00e+00 0.00e+00
Max memory consumed for GA by this process: 75816 bytes
MA_summarize_allocated_blocks: starting scan ...
MA_summarize_allocated_blocks: scan completed: 0 heap blocks, 0 stack blocks
MA usage statistics:

	allocation statistics:
					      heap	     stack
					      ----	     -----
	current number of blocks	         0	         0
	maximum number of blocks	        17	        14
	current total bytes		         0	         0
	maximum total bytes		   2104880	  22509404
	maximum total K-bytes		      2105	     22510
	maximum total M-bytes		         3	        23


                                NWChem Input Module
                                -------------------





                                     CITATION
                                     --------
                Please cite the following reference when publishing
                           results obtained with NWChem:

                 M. Valiev, E.J. Bylaska, N. Govind, K. Kowalski,
              T.P. Straatsma, H.J.J. van Dam, D. Wang, J. Nieplocha,
                        E. Apra, T.L. Windus, W.A. de Jong
                 "NWChem: a comprehensive and scalable open-source
                  solution for large scale molecular simulations"
                      Comput. Phys. Commun. 181, 1477 (2010)
                           doi:10.1016/j.cpc.2010.04.018

                                      AUTHORS
                                      -------
          E. Apra, E. J. Bylaska, W. A. de Jong, N. Govind, K. Kowalski,
       T. P. Straatsma, M. Valiev, H. J. J. van Dam, D. Wang, T. L. Windus,
        J. Hammond, J. Autschbach, K. Bhaskaran-Nair, J. Brabec, K. Lopata,
       S. A. Fischer, S. Krishnamoorthy, W. Ma, M. Klemm, O. Villa, Y. Chen,
    V. Anisimov, F. Aquino, S. Hirata, M. T. Hackler, T. Risthaus, M. Malagoli,
       A. Marenich, A. Otero-de-la-Roza, J. Mullin, P. Nichols, R. Peverati,
     J. Pittner, Y. Zhao, P.-D. Fan, A. Fonari, M. Williamson, R. J. Harrison,
       J. R. Rehr, M. Dupuis, D. Silverstein, D. M. A. Smith, J. Nieplocha,
        V. Tipparaju, M. Krishnan, B. E. Van Kuiken, A. Vazquez-Mayagoitia,
        L. Jensen, M. Swart, Q. Wu, T. Van Voorhis, A. A. Auer, M. Nooijen,
      L. D. Crosby, E. Brown, G. Cisneros, G. I. Fann, H. Fruchtl, J. Garza,
        K. Hirao, R. A. Kendall, J. A. Nichols, K. Tsemekhman, K. Wolinski,
     J. Anchell, D. E. Bernholdt, P. Borowski, T. Clark, D. Clerc, H. Dachsel,
   M. J. O. Deegan, K. Dyall, D. Elwood, E. Glendening, M. Gutowski, A. C. Hess,
         J. Jaffe, B. G. Johnson, J. Ju, R. Kobayashi, R. Kutteh, Z. Lin,
   R. Littlefield, X. Long, B. Meng, T. Nakajima, S. Niu, L. Pollack, M. Rosing,
   K. Glaesemann, G. Sandrone, M. Stave, H. Taylor, G. Thomas, J. H. van Lenthe,
                               A. T. Wong, Z. Zhang.

 Total times  cpu:        0.1s     wall:        0.1s
