H                                                                       
SP        RHF                                                         Gen                 
Number of atoms                            I                3
Info1-9                                    I   N=           9
          63          62           0           0           0         110
           1           1           2
Charge                                     I                0
Multiplicity                               I                1
Number of electrons                        I               10
Number of alpha electrons                  I                5
Number of beta electrons                   I                5
Number of basis functions                  I               43
Number of independent functions            I               43
Number of point charges in /Mol/           I                0
Number of translation vectors              I                0
Atomic numbers                             I   N=           3
           1           8           1
Nuclear charges                            R   N=           3
  1.00000000E+00  8.00000000E+00  1.00000000E+00
Current cartesian coordinates              R   N=           9
  0.00000000E+00  0.00000000E+00  0.00000000E+00  1.88972613E+00  0.00000000E+00
  0.00000000E+00  1.88972613E+00  1.88972613E+00  0.00000000E+00
Force Field                                I                0
Int Atom Types                             I   N=           3
           0           0           0
MM charges                                 R   N=           3
  0.00000000E+00  0.00000000E+00  0.00000000E+00
Integer atomic weights                     I   N=           3
           1          16           1
Real atomic weights                        R   N=           3
  1.00782504E+00  1.59949146E+01  1.00782504E+00
Atom fragment info                         I   N=           3
           0           0           0
Atom residue num                           I   N=           3
           0           0           0
Nuclear spins                              I   N=           3
           1           0           1
Nuclear ZEff                               R   N=           3
 -1.00000000E+00 -5.60000000E+00 -1.00000000E+00
Nuclear ZNuc                               R   N=           3
  1.00000000E+00  8.00000000E+00  1.00000000E+00
Nuclear QMom                               R   N=           3
  0.00000000E+00  0.00000000E+00  0.00000000E+00
Nuclear GFac                               R   N=           3
  2.79284600E+00  0.00000000E+00  2.79284600E+00
MicOpt                                     I   N=           3
          -1          -1          -1
Number of contracted shells                I               19
Number of primitive shells                 I               37
Pure/Cartesian d shells                    I                1
Pure/Cartesian f shells                    I                1
Highest angular momentum                   I                2
Largest degree of contraction              I                7
Shell types                                I   N=          19
           0           0           0           1           1           0
           0           0           0           1           1           1
           2           2           0           0           0           1
           1
Number of primitives per shell             I   N=          19
           3           1           1           1           1           7
           7           1           1           3           1           1
           1           1           3           1           1           1
           1
Shell to atom map                          I   N=          19
           1           1           1           1           1           2
           2           2           2           2           2           2
           2           2           3           3           3           3
           3
Primitive exponents                        R   N=          37
  1.30100000E+01  1.96200000E+00  4.44600000E-01  1.22000000E-01  2.97400000E-02
  7.27000000E-01  1.41000000E-01  1.17200000E+04  1.75900000E+03  4.00800000E+02
  1.13700000E+02  3.70300000E+01  1.32700000E+01  5.02500000E+00  1.17200000E+04
  4.00800000E+02  1.13700000E+02  3.70300000E+01  1.32700000E+01  5.02500000E+00
  1.01300000E+00  3.02300000E-01  7.89600000E-02  1.77000000E+01  3.85400000E+00
  1.04600000E+00  2.75300000E-01  6.85600000E-02  1.18500000E+00  3.32000000E-01
  1.30100000E+01  1.96200000E+00  4.44600000E-01  1.22000000E-01  2.97400000E-02
  7.27000000E-01  1.41000000E-01
Contraction coefficients                   R   N=          37
  3.34987264E-02  2.34800801E-01  8.13682958E-01  1.00000000E+00  1.00000000E+00
  1.00000000E+00  1.00000000E+00  7.11864434E-04  5.48520199E-03  2.79099296E-02
  1.05133208E-01  2.84002490E-01  4.51673946E-01  2.73208126E-01  7.69030046E-06
  3.13484579E-04 -2.96614853E-03 -1.08753543E-02 -1.20753817E-01 -1.06275264E-01
  1.09597548E+00  1.00000000E+00  1.00000000E+00  6.26791663E-02  3.33536566E-01
  7.41239642E-01  1.00000000E+00  1.00000000E+00  1.00000000E+00  1.00000000E+00
  3.34987264E-02  2.34800801E-01  8.13682958E-01  1.00000000E+00  1.00000000E+00
  1.00000000E+00  1.00000000E+00
Coordinates of each shell                  R   N=          57
  0.00000000E+00  0.00000000E+00  0.00000000E+00  0.00000000E+00  0.00000000E+00
  0.00000000E+00  0.00000000E+00  0.00000000E+00  0.00000000E+00  0.00000000E+00
  0.00000000E+00  0.00000000E+00  0.00000000E+00  0.00000000E+00  0.00000000E+00
  1.88972613E+00  0.00000000E+00  0.00000000E+00  1.88972613E+00  0.00000000E+00
  0.00000000E+00  1.88972613E+00  0.00000000E+00  0.00000000E+00  1.88972613E+00
  0.00000000E+00  0.00000000E+00  1.88972613E+00  0.00000000E+00  0.00000000E+00
  1.88972613E+00  0.00000000E+00  0.00000000E+00  1.88972613E+00  0.00000000E+00
  0.00000000E+00  1.88972613E+00  0.00000000E+00  0.00000000E+00  1.88972613E+00
  0.00000000E+00  0.00000000E+00  1.88972613E+00  1.88972613E+00  0.00000000E+00
  1.88972613E+00  1.88972613E+00  0.00000000E+00  1.88972613E+00  1.88972613E+00
  0.00000000E+00  1.88972613E+00  1.88972613E+00  0.00000000E+00  1.88972613E+00
  1.88972613E+00  0.00000000E+00
Constraint Structure                       R   N=           9
  0.00000000E+00  0.00000000E+00  0.00000000E+00  1.88972613E+00  0.00000000E+00
  0.00000000E+00  1.88972613E+00  1.88972613E+00  0.00000000E+00
Num ILSW                                   I              100
ILSW                                       I   N=         100
           0           1           0           0           2           0
           0           0           0           0           0          -1
           5           0           0           1           0           0
           0           0           1           0           0           0
           1           1           0           0           0           0
           0           0      100000           0          -1           0
           0           0           0           0           0           0
           0           0           0           1           0           0
           0           0           1           0           0           0
           0           0           4          41           0           0
           0           0           0           0           0           0
           0           0           0           0           0           0
           0           0           0           0           0           0
           0           0           0           0           0           0
           0           0           0           0           0           0
           0           0           0           0           0           0
           0           0           0           0
Num RLSW                                   I               41
RLSW                                       R   N=          41
  1.00000000E+00  1.00000000E+00  1.00000000E+00  1.00000000E+00  1.00000000E+00
  0.00000000E+00  0.00000000E+00  1.00000000E+00  0.00000000E+00  0.00000000E+00
  0.00000000E+00  0.00000000E+00  1.00000000E+00  0.00000000E+00  0.00000000E+00
  0.00000000E+00  0.00000000E+00  1.00000000E+00  0.00000000E+00  0.00000000E+00
  0.00000000E+00  0.00000000E+00  1.00000000E+00  0.00000000E+00  0.00000000E+00
  0.00000000E+00  0.00000000E+00  1.00000000E+00  0.00000000E+00  0.00000000E+00
  0.00000000E+00  0.00000000E+00  0.00000000E+00  0.00000000E+00  0.00000000E+00
  0.00000000E+00  0.00000000E+00  0.00000000E+00  1.00000000E+00  1.00000000E+00
  0.00000000E+00
MxBond                                     I                2
NBond                                      I   N=           3
           1           2           1
IBond                                      I   N=           6
           2           0           1           3           2           0
RBond                                      R   N=           6
  1.00000000E+00  0.00000000E+00  1.00000000E+00  1.00000000E+00  1.00000000E+00
  0.00000000E+00
Virial Ratio                               R      2.002778571538148E+00
SCF Energy                                 R     -7.603085968854447E+01
Total Energy                               R     -7.603085968854447E+01
RMS Density                                R      9.182544727327153E-09
External E-field                           R   N=          35
  0.00000000E+00  0.00000000E+00  0.00000000E+00  0.00000000E+00  0.00000000E+00
  0.00000000E+00  0.00000000E+00  0.00000000E+00  0.00000000E+00  0.00000000E+00
  0.00000000E+00  0.00000000E+00  0.00000000E+00  0.00000000E+00  0.00000000E+00
  0.00000000E+00  0.00000000E+00  0.00000000E+00  0.00000000E+00  0.00000000E+00
  0.00000000E+00  0.00000000E+00  0.00000000E+00  0.00000000E+00  0.00000000E+00
  0.00000000E+00  0.00000000E+00  0.00000000E+00  0.00000000E+00  0.00000000E+00
  0.00000000E+00  0.00000000E+00  0.00000000E+00  0.00000000E+00  0.00000000E+00
IOpCl                                      I                0
IROHF                                      I                0
Alpha Orbital Energies                     R   N=          43
 -2.05891884E+01 -1.34620224E+00 -6.67650710E-01 -6.05680014E-01 -5.10009739E-01
  3.32243724E-02  5.90056971E-02  1.69187303E-01  2.00234641E-01  2.19468318E-01
  2.37146085E-01  2.71349883E-01  3.49575142E-01  3.66383591E-01  3.91432150E-01
  4.07263568E-01  5.46999981E-01  5.86067807E-01  6.56552265E-01  7.64068804E-01
  9.22311470E-01  1.11573730E+00  1.11661462E+00  1.14382058E+00  1.22410652E+00
  1.26635295E+00  1.42932000E+00  1.45264568E+00  1.92433279E+00  1.96562184E+00
  2.00954105E+00  2.11199251E+00  2.36875199E+00  2.43751186E+00  2.65906934E+00
  2.85026975E+00  3.67675752E+00  3.68104859E+00  3.68848847E+00  3.87212483E+00
  4.22110870E+00  4.49765081E+00  9.43834694E+00
Alpha MO coefficients                      R   N=        1849
  1.77766953E-04 -7.81578871E-05  1.72016644E-04 -2.46532993E-04  2.25435862E-05
 -1.05495878E-16 -8.33511038E-06  7.54405125E-05 -1.46498165E-16  9.97392703E-01
  1.83194353E-02 -8.12775468E-03 -1.15979349E-03 -1.02515779E-03  1.02515779E-03
 -2.61230281E-18  3.93398961E-04 -3.93398961E-04  3.18798461E-16 -1.51097771E-05
  1.51097771E-05 -3.60705144E-16 -2.68857556E-04 -2.68857556E-04 -2.67561941E-04
 -5.92157268E-05  7.02302010E-18  8.89817933E-16  2.16583823E-03  2.16583823E-03
  2.31821203E-03  8.80570576E-05 -3.13179816E-16 -4.85214236E-16  1.77766953E-04
 -7.81578871E-05  1.72016644E-04 -2.25435862E-05  2.46532993E-04 -1.14066225E-16
 -7.54405125E-05  8.33511038E-06  2.40818618E-16  1.99698468E-01  2.14545270E-02
 -3.60134020E-04  3.99869985E-02  6.44252331E-03  5.72666692E-17  1.20255396E-02
  1.30508695E-03 -3.96209684E-16 -2.11494256E-01  4.27801727E-01  4.08313281E-01
  1.75471446E-02 -5.88651461E-02  5.88651461E-02 -6.54313678E-16  2.35163439E-02
 -2.35163439E-02  4.87968536E-17 -1.37000235E-03  1.37000235E-03  2.17247946E-17
  2.85760478E-03  2.85760478E-03 -8.01424024E-03 -1.73315874E-03  4.53447523E-17
  1.23338556E-16 -4.09710945E-02 -4.09710945E-02 -9.34737094E-03  3.78066883E-03
  2.92061769E-17 -4.87783977E-16  1.99698468E-01  2.14545270E-02 -3.60134020E-04
 -6.44252331E-03 -3.99869985E-02  1.76560443E-16 -1.30508695E-03 -1.20255396E-02
  1.10063365E-16 -3.21394471E-01 -7.25774749E-02  4.89235095E-03 -3.92858290E-02
  1.29958573E-02  1.62278231E-16  5.93462737E-03  7.29436885E-03 -8.46100802E-16
  2.05813786E-15  7.73069315E-15  3.52420359E-14  1.40379072E-13  3.57011375E-01
  3.57011375E-01  3.17414447E-15  1.73993886E-01  1.73993886E-01  1.92451008E-15
  1.59136826E-02  1.59136826E-02  2.22403171E-15 -2.41279384E-02  2.41279384E-02
  1.31322667E-15 -7.62735902E-16  5.38959042E-17 -3.14750088E-16  1.63818819E-02
 -1.63818819E-02  1.73660697E-14  9.49454485E-16  5.79445213E-16 -3.88191882E-16
  3.21394471E-01  7.25774749E-02 -4.89235095E-03  1.29958573E-02 -3.92858290E-02
  4.14072328E-16  7.29436885E-03  5.93462737E-03 -4.44693749E-16 -2.32828860E-01
 -6.55978264E-02 -3.61851223E-03 -2.73145999E-02 -1.95829990E-02  5.34157888E-17
  6.78747610E-03 -1.24838545E-02  5.13152933E-18 -7.58455396E-02  1.65270453E-01
  3.48664937E-01  7.96017594E-02  3.71707773E-01 -3.71707773E-01 -1.31234059E-15
  2.07046088E-01 -2.07046088E-01 -8.66242749E-16  2.16289174E-02 -2.16289174E-02
 -1.79662567E-18 -1.02694646E-02 -1.02694646E-02  7.22659005E-03  1.21928648E-02
  9.94708862E-17 -7.15469548E-17 -1.59118856E-03 -1.59118856E-03 -6.07467210E-03
  1.11524962E-02  3.65165111E-16 -1.00108475E-17 -2.32828860E-01 -6.55978264E-02
 -3.61851223E-03  1.95829990E-02  2.73145999E-02  6.19424150E-17  1.24838545E-02
 -6.78747610E-03 -5.04362401E-17  2.20677474E-15  9.40802667E-15  8.43828928E-15
  5.60195234E-16  3.59254077E-16  2.42555147E-02  2.16045638E-15 -1.22746146E-15
  1.66119085E-02 -3.12919389E-16 -5.26005588E-16 -4.23561169E-15 -1.78482801E-14
 -8.03875304E-16 -1.81474223E-15  6.30925971E-01  2.29322228E-15 -4.84410444E-15
  4.50783344E-01  5.82118399E-15 -1.53922304E-15  6.76724975E-02  1.91328941E-16
 -5.68900280E-16 -2.10635734E-17  3.90378028E-17 -1.01275055E-02  1.01275055E-02
 -2.10209050E-15 -2.65687345E-15 -1.99908513E-15 -1.84596363E-16 -1.52432972E-02
  1.52432972E-02 -1.28962698E-15  1.59842383E-14 -5.92980288E-15 -1.75956476E-16
 -4.46334273E-16  2.42555147E-02 -1.68199930E-15 -5.88559107E-15  1.66119085E-02
 -1.80748411E-02 -4.03004157E-01 -8.09162097E-01  5.70043263E-03  9.16168827E-04
 -1.50621990E-16 -9.14606229E-02  7.13375827E-03  1.12974804E-16 -2.94430966E-02
  4.65616293E-02  2.03765864E-01  1.40566711E+00 -5.29653744E-02  5.29653744E-02
  1.68886311E-17 -1.03340969E-01  1.03340969E-01  2.74280431E-16 -1.60936093E-01
  1.60936093E-01 -3.31389592E-16 -1.66923182E-03 -1.66923182E-03 -4.00320698E-03
 -2.61568838E-03 -1.14075689E-16 -1.69646959E-16 -9.85400095E-03 -9.85400095E-03
 -2.12309302E-02  2.00507089E-03  1.77371535E-17  1.68995570E-16 -1.80748411E-02
 -4.03004157E-01 -8.09162097E-01 -9.16168827E-04 -5.70043263E-03 -2.01953229E-16
 -7.13375827E-03  9.14606228E-02  4.02141861E-17  3.24622158E-03  5.00643305E-01
  3.08779537E+00 -5.15747209E-03  1.58613452E-03 -1.34159758E-16  1.65988235E-01
 -1.18539676E-02  3.04775518E-16  6.09547811E-14  1.51313795E-13  9.83958313E-13
  7.33250277E-12  5.20675257E-02  5.20675257E-02 -1.59103053E-16  8.94077250E-02
  8.94077250E-02 -7.03248760E-16  5.20613352E-01  5.20613352E-01 -2.90086837E-16
  5.49596555E-04 -5.49596555E-04  3.86981241E-14 -7.28973787E-15 -3.21061769E-16
  9.89452376E-17 -1.96953241E-02  1.96953241E-02  3.68017586E-13  3.59584482E-14
  1.91061371E-16 -4.28330055E-16 -3.24622158E-03 -5.00643305E-01 -3.08779537E+00
  1.58613452E-03 -5.15747209E-03  6.36633116E-16 -1.18539676E-02  1.65988235E-01
  2.87095768E-16 -2.42496410E-02 -1.99351147E+00 -6.69130044E-01 -4.23907006E-02
 -2.46806809E-03  6.68359499E-17 -5.68825475E-01  3.33951242E-02 -3.53081212E-16
  2.24890880E-02  5.43010629E-03  4.15630022E-01  4.28326493E+00  1.39787969E-01
 -1.39787969E-01  1.44226882E-15 -6.03580096E-02  6.03580096E-02  3.25280140E-15
 -1.39477122E+00  1.39477122E+00 -8.95227141E-15 -1.67727534E-03 -1.67727534E-03
  1.14004025E-02  3.71284578E-03 -9.16157511E-17  1.10004612E-17  1.88894930E-01
  1.88894930E-01  8.08307259E-02  3.42417522E-03  4.26226884E-16 -3.76313244E-16
 -2.42496410E-02 -1.99351147E+00 -6.69130044E-01  2.46806809E-03  4.23907006E-02
 -3.60703215E-16 -3.33951242E-02  5.68825475E-01  2.05282684E-16 -1.69380383E-15
 -5.56915101E-14 -4.45090013E-14 -5.87322556E-16 -5.29032567E-17  8.01587229E-03
 -1.32306656E-14 -4.74590509E-15 -2.27840316E-01 -3.98862344E-16  2.06214896E-15
 -1.61311403E-15 -4.15963350E-15  2.68366360E-15  1.37585005E-15 -1.76794628E-01
 -5.06477334E-16 -5.47329296E-15 -2.81754572E-01 -4.96642344E-14 -1.68163113E-14
  1.38383817E+00  1.02302985E-16 -7.62362921E-17  3.10118329E-16  2.67134616E-16
  1.17455100E-02 -1.17455100E-02  1.93908113E-15 -8.05738764E-16  4.09712942E-16
 -1.09373138E-15 -3.91663326E-02  3.91663326E-02  8.40062119E-16  4.62834442E-14
  4.65452875E-14 -2.21734831E-16 -1.18077721E-15  8.01587229E-03  1.81287005E-15
 -2.40357357E-14 -2.27840316E-01  5.78294040E-02  1.30407419E-02 -6.09528166E-01
 -2.16916929E-02  7.20151321E-04  2.07957177E-16 -4.98511182E-01  8.53040312E-02
 -4.50657809E-15  5.10076685E-02 -2.18847319E-01 -1.06751522E-01  2.12103441E+00
  5.23516396E-02 -5.23516396E-02 -2.21208409E-15 -8.09418937E-02  8.09418937E-02
 -3.04273427E-15  4.66342034E-01 -4.66342034E-01  1.83653871E-14 -1.75939156E-03
 -1.75939156E-03 -1.26371908E-02 -5.31852772E-03  3.40723603E-17 -1.69301665E-16
 -8.23778005E-02 -8.23778005E-02 -7.87868048E-02  4.04527275E-02 -1.92333415E-16
  4.06762087E-16  5.78294040E-02  1.30407419E-02 -6.09528166E-01 -7.20151321E-04
  2.16916929E-02  1.24722839E-16 -8.53040312E-02  4.98511182E-01 -3.25781233E-15
  8.11544359E-02  2.72103130E+00  2.65461074E+00  4.00924071E-02  2.86730674E-03
  2.14658699E-16  8.44262545E-01  6.99328118E-03  1.64837468E-15  1.00297180E-13
 -4.86575787E-13 -3.47144774E-13  2.42479595E-12 -1.12332609E-01 -1.12332609E-01
 -3.41774949E-15  1.50882014E-01  1.50882014E-01 -5.99558817E-15  2.06154585E+00
  2.06154585E+00  2.49455873E-14  1.27425760E-02 -1.27425760E-02 -3.31176775E-14
  1.00993240E-14  6.48838473E-18  5.60556300E-17 -1.04950970E-01  1.04950970E-01
 -1.64964317E-13  2.41217139E-14 -3.20797973E-16  1.03428495E-15 -8.11544359E-02
 -2.72103130E+00 -2.65461074E+00  2.86730674E-03  4.00924071E-02 -2.55533704E-16
  6.99328118E-03  8.44262545E-01 -7.39230225E-15  1.51124794E-01  7.61221568E-01
 -6.33227034E-01  7.79299948E-03  5.00243506E-03  2.51513342E-17 -6.33539497E-01
  2.07195124E-02  1.41649878E-15 -2.26307799E-15 -1.19960880E-13 -8.48754188E-14
 -3.83487707E-12  1.78999670E-01  1.78999670E-01  1.21417433E-16  1.95779887E-01
  1.95779887E-01  3.56508230E-16  3.96679680E-01  3.96679680E-01 -4.99090586E-15
  1.19882193E-02 -1.19882193E-02 -3.97088899E-14  1.31650956E-14 -2.04052241E-16
  1.90142023E-16 -4.01715247E-02  4.01715247E-02 -4.37855404E-14 -1.34032254E-14
  1.92027895E-16 -3.47808361E-16 -1.51124794E-01 -7.61221568E-01  6.33227034E-01
  5.00243506E-03  7.79299948E-03 -2.11816988E-16  2.07195124E-02 -6.33539497E-01
  1.24837572E-15 -7.24227453E-02 -1.95567830E+00 -1.81632230E-01 -1.79333229E-02
  9.52248949E-03  3.37441709E-16  1.61656933E-02  7.58177171E-01 -2.70442398E-14
 -8.73772641E-03 -7.46848660E-03  1.45154470E-01  3.52236391E+00 -4.54882329E-02
  4.54882329E-02 -9.06075049E-16 -1.14805879E-01  1.14805879E-01  2.25581811E-15
 -3.85380353E-01  3.85380353E-01  9.29727886E-15 -4.47163374E-03 -4.47163374E-03
  8.68983317E-03 -3.57259184E-02  5.46692496E-16  2.34736211E-16  7.09173507E-03
  7.09173507E-03 -4.44040152E-02  1.13482346E-01 -1.33386297E-15 -1.44048504E-15
 -7.24227453E-02 -1.95567830E+00 -1.81632230E-01 -9.52248949E-03  1.79333229E-02
 -8.59366531E-17 -7.58177171E-01 -1.61656933E-02  1.62260310E-14 -7.01783786E-02
 -2.08318312E+00 -3.13291774E-01 -4.59009717E-02 -2.27152534E-02  4.49491382E-16
  3.55723023E-01 -4.76389790E-01 -4.21295210E-14 -7.88511664E-03 -1.43272314E-01
 -2.00574070E-01  4.47230324E+00 -1.27581674E-01  1.27581674E-01  1.51876624E-15
 -4.28673240E-01  4.28673240E-01  1.03349014E-14 -1.29177945E+00  1.29177945E+00
  1.43512651E-14 -4.44055214E-03 -4.44055214E-03  2.78852698E-03  1.52250299E-02
  9.12497194E-16  4.21387292E-16 -1.79509394E-01 -1.79509394E-01 -2.51182325E-01
 -8.72168839E-02 -2.68553282E-15 -8.52496630E-16 -7.01783786E-02 -2.08318312E+00
 -3.13291774E-01  2.27152534E-02  4.59009717E-02 -7.74686956E-16  4.76389790E-01
 -3.55723023E-01  8.44610189E-15 -1.85646603E-15 -3.48259027E-14 -1.86421713E-14
 -3.70640732E-16 -9.95162085E-16 -5.61499991E-03  3.04733463E-14  8.53574982E-15
  1.19059127E+00 -4.58594588E-16 -5.51801075E-15 -1.30252207E-14  1.39875629E-13
 -2.27981237E-15  4.14576086E-15 -1.80897896E-13 -1.60988400E-15  1.39710759E-14
 -7.66990791E-13 -3.61746516E-14  2.73398398E-14 -1.27425812E-12 -5.88081569E-16
 -1.56249485E-16 -2.89829828E-18 -4.79144515E-16 -2.54887334E-02 -2.54887334E-02
 -9.42684551E-15 -7.96258795E-15 -1.04599811E-14 -2.87348161E-16  7.74439652E-02
  7.74439652E-02 -3.54549198E-15 -8.89467007E-14  1.29433489E-15  1.57456652E-16
  1.62121924E-15  5.61499991E-03  2.01191243E-16 -5.96237981E-15 -1.19059127E+00
 -8.54809686E-16  2.93878272E-14 -1.40657090E-14 -1.84640814E-16 -4.26174953E-16
  4.32108587E-03  3.70790682E-14  1.68033494E-14  1.08988074E+00 -3.29176316E-16
 -5.85209154E-15 -9.49100028E-15  8.42593224E-14 -1.84611229E-15  1.33411129E-15
 -1.36806003E-01  2.67069862E-15  9.97680302E-15 -5.71525075E-01 -2.79522307E-14
  2.09333622E-14 -1.06290278E+00 -6.97793711E-16 -4.08934018E-16 -2.25411532E-16
  1.15128398E-16 -1.87807086E-02  1.87807086E-02 -1.02807282E-14 -6.29949274E-15
 -7.90470308E-15 -5.06123178E-16  6.24618189E-02 -6.24618189E-02 -1.16530078E-15
 -8.95748540E-14 -2.20132893E-15 -4.32116067E-16  9.52893467E-16  4.32108587E-03
  2.61087245E-14  1.20857533E-14  1.08988074E+00  1.96732507E-02  2.68430041E+00
 -6.67915538E-01  3.07209609E-04 -3.37454370E-02  4.70170934E-16  1.12563953E+00
  2.67535053E+00 -7.70940151E-15  1.69369841E-13 -2.92870858E-12 -2.16538701E-11
 -4.82280979E-11 -5.42150287E-02 -5.42150287E-02  1.77457264E-15 -1.24868059E-01
 -1.24868059E-01  1.73446861E-15 -1.12481453E+00 -1.12481453E+00  1.00651685E-14
  7.74087313E-03 -7.74087313E-03  3.93390779E-14  9.16038337E-14  1.62114920E-16
 -3.14987207E-16 -1.16467967E-02  1.16467966E-02 -5.40159593E-12 -3.51696484E-13
 -2.55491621E-16 -3.39772222E-16 -1.96732507E-02 -2.68430041E+00  6.67915538E-01
 -3.37454370E-02  3.07209608E-04  7.92689183E-16  2.67535053E+00  1.12563953E+00
 -8.04896795E-15 -1.81127957E-01 -4.47310931E+00 -5.92317747E-01 -4.96050494E-03
  4.13100466E-03  1.24749116E-15 -2.20758644E+00  9.54984934E-02  1.14532108E-14
 -3.92790778E-02  3.03539069E-01  2.68887476E+00  6.76095255E+00 -1.66448852E-01
  1.66448852E-01 -3.95955759E-15 -7.68852763E-01  7.68852763E-01 -2.20536164E-15
 -8.04429906E-01  8.04429906E-01 -5.82073718E-16  3.58016736E-03  3.58016736E-03
 -1.09407097E-02 -1.19038181E-02 -2.62441452E-16 -1.49460749E-16  5.96356410E-01
  5.96356410E-01  5.72417232E-01  2.80194842E-02  2.64285387E-15 -1.07322570E-15
 -1.81127957E-01 -4.47310931E+00 -5.92317747E-01 -4.13100466E-03  4.96050494E-03
 -1.22659169E-15 -9.54984934E-02  2.20758644E+00 -1.43650810E-15  1.63315165E-01
  9.03571025E+00  1.31198912E+00  2.87970464E-02 -1.73204902E-02  4.78111096E-16
  3.84779716E+00  1.16351922E+00 -1.67372306E-14 -7.50541081E-13  1.79584774E-12
  2.44540260E-11  6.72457280E-11  1.99148319E-01  1.99148319E-01  1.82170083E-15
  1.19229043E+00  1.19229043E+00  2.06038256E-15  1.45066248E+00  1.45066248E+00
  1.37465136E-14 -9.49133916E-03  9.49133916E-03 -2.26609181E-13 -1.13565090E-13
  6.30060466E-16 -4.87959711E-16 -7.70563553E-02  7.70563553E-02  3.78182734E-12
  1.16784651E-14 -9.68949776E-16  1.45765596E-15 -1.63315165E-01 -9.03571025E+00
 -1.31198912E+00 -1.73204902E-02  2.87970464E-02  4.72605401E-16  1.16351922E+00
  3.84779716E+00 -1.99215925E-15 -4.78927854E-01  4.32809131E+00  2.66095356E-01
  1.96849287E-01 -4.81344748E-02 -1.77744057E-15  8.90448153E-01  5.25140559E-01
 -5.98514028E-15 -3.23277961E-13  3.91790782E-14  3.69666602E-12  8.94283685E-12
 -1.51802698E-01 -1.51802698E-01 -6.62850514E-16  3.87848581E-01  3.87848581E-01
  4.14860535E-15  9.77857394E-01  9.77857394E-01  4.73656868E-15 -4.99825061E-02
  4.99825061E-02 -9.07878593E-14 -2.20480664E-14  2.23995438E-16 -2.49950018E-16
 -5.74306492E-01  5.74306492E-01  3.33883658E-13 -7.73187682E-14 -1.23179866E-18
  9.16607984E-16  4.78927854E-01 -4.32809131E+00 -2.66095356E-01 -4.81344748E-02
  1.96849287E-01 -1.58875732E-16  5.25140559E-01  8.90448153E-01 -3.04607017E-15
  4.55091916E-01 -3.73520619E+00 -1.52241875E-01 -1.93900186E-01 -3.89424228E-02
  2.31202511E-15 -5.68692633E-01  6.38696611E-02  8.04857171E-15  8.97678096E-02
 -4.31967241E-03  7.70242155E-01  4.67993391E+00  7.59974148E-02 -7.59974148E-02
 -5.42729075E-15 -3.90183168E-01  3.90183168E-01  1.19536667E-16 -1.13924909E+00
  1.13924909E+00 -4.04594188E-15  3.64919816E-02  3.64919816E-02 -4.55434064E-04
  3.07538855E-03 -8.97822055E-16 -3.67061138E-17  9.22545682E-01  9.22545682E-01
 -1.50511067E-01 -5.82851966E-02  6.34087717E-15 -5.39436198E-15  4.55091916E-01
 -3.73520619E+00 -1.52241875E-01  3.89424228E-02  1.93900186E-01 -1.48331522E-15
 -6.38696611E-02  5.68692633E-01  4.22071348E-15  7.37175387E-14 -3.65648650E-13
 -1.19020904E-13 -1.65899558E-14 -1.04488231E-13 -3.39974617E-02  1.28560089E-13
  8.77955481E-13  5.77031089E-01 -1.00917744E-13 -1.07852978E-13  3.59623012E-13
  1.50280865E-12  1.80758266E-14 -1.57191464E-14 -1.73547215E-01  1.35473457E-13
 -1.31092519E-13 -1.67703297E-02  2.42349209E-13 -2.38159418E-13 -7.14157674E-01
 -1.55907621E-14 -1.64369468E-14 -2.10359382E-14 -2.29316766E-14 -1.36429100E-02
  1.36429100E-02 -4.55602904E-13 -4.51556654E-13 -8.41563791E-13  1.80550388E-12
  8.04482146E-01 -8.04482146E-01  6.75178684E-14 -3.82249449E-13 -1.27703639E-13
  1.04429659E-13  1.57916367E-14 -3.39974617E-02 -8.76716469E-13 -1.19103682E-13
  5.77031089E-01  4.66443183E-02 -2.55668039E-01 -8.17240247E-02 -9.11915192E-03
 -6.45143557E-02  5.43841741E-14  7.47472957E-02  5.51523967E-01 -9.21215812E-13
 -6.33607165E-02 -6.68021530E-02  2.25573930E-01  9.83910082E-01  9.06751405E-03
 -9.06751405E-03  2.72649068E-13  8.56261218E-02 -8.56261218E-02  3.29843113E-14
  1.41748759E-01 -1.41748759E-01  1.14037912E-12 -9.86815936E-03 -9.86815936E-03
 -1.28702472E-02 -1.43427655E-02  2.17468917E-14 -2.18670421E-14 -2.81688785E-01
 -2.81688785E-01 -5.35561941E-01  1.13293005E+00 -1.28288381E-12  1.28514913E-12
  4.66443183E-02 -2.55668039E-01 -8.17240247E-02  6.45143557E-02  9.11915192E-03
  5.44516723E-14 -5.51523967E-01 -7.47472957E-02 -9.24514319E-13  4.08860024E-15
 -4.15203283E-14 -6.64674950E-15 -7.90468730E-16  9.77009989E-17 -3.83935215E-02
 -1.67437012E-14 -4.66000645E-16  7.30776106E-01  1.81707624E-15  2.22255279E-15
  1.43263443E-15  1.79896423E-14 -1.42807084E-15  1.64642634E-15  1.41825355E-13
 -1.55608255E-15 -1.62755428E-15 -2.76410023E-14 -1.08762820E-14  1.08859780E-16
  4.83157188E-13  1.23168429E-15  1.09304370E-16  2.65522599E-16 -5.48846000E-17
 -1.44661653E-02 -1.44661653E-02  8.96137925E-15  1.05032736E-14  1.50343642E-14
  1.20267013E-15  8.56951694E-01  8.56951694E-01 -1.02201922E-16 -1.47848046E-15
  4.67218086E-15  9.05882169E-16 -8.12917460E-16  3.83935215E-02 -1.97115926E-15
  1.48929845E-15 -7.30776106E-01  2.19930599E-01 -1.96068844E+00  5.39520377E-02
 -2.03773839E-02 -7.88820479E-02  1.83677588E-15 -1.14135101E+00  2.95274279E-01
 -1.00401584E-14  2.05513362E-01  2.27956907E-01  4.70459956E-01  7.12347417E-01
 -1.04962799E-01  1.04962799E-01 -5.91873293E-15 -8.97166758E-02  8.97166758E-02
  9.46897567E-15 -5.53540323E-02  5.53540323E-02  4.69425740E-15  4.05880032E-02
  4.05880032E-02  1.96418025E-02 -1.84659942E-04  3.79281621E-17 -2.20177351E-16
  1.08615687E+00  1.08615687E+00  2.02858298E+00  3.40458199E-01 -1.26184251E-14
  1.78116223E-15  2.19930599E-01 -1.96068844E+00  5.39520377E-02  7.88820479E-02
  2.03773839E-02 -1.62468747E-15 -2.95274279E-01  1.14135101E+00 -2.96781794E-15
  3.91949997E-01 -2.24297226E+00 -2.05393403E-01 -3.68945975E-01 -1.04153151E-01
  2.41145127E-17 -5.22827858E-01 -6.30763023E-02  4.19534040E-16 -7.03142691E-02
 -1.93173041E-01  1.60257853E+00  3.52563013E+00  4.33677951E-01 -4.33677951E-01
  4.79582813E-15 -9.12313737E-01  9.12313737E-01 -6.01124828E-15 -3.92010384E-01
  3.92010384E-01  5.46196673E-15  4.39271137E-02  4.39271137E-02 -7.31000659E-02
  1.43208423E-02  8.76577237E-16 -1.09652444E-15 -5.38446031E-01 -5.38446031E-01
  1.75321460E-01 -2.02527631E-01 -3.50337902E-15  8.39216837E-15  3.91949997E-01
 -2.24297226E+00 -2.05393403E-01  1.04153151E-01  3.68945975E-01 -3.92118266E-15
  6.30763023E-02  5.22827858E-01 -3.59454570E-15 -4.49621541E-01  4.04143051E+00
 -6.66318675E-02  3.53251309E-01 -6.78681248E-02  2.72712473E-15  1.52109146E+00
  3.11598669E-01 -5.42702031E-14 -4.44278394E-15 -4.64506368E-13  2.82190820E-12
  7.89416090E-12 -4.19171185E-01 -4.19171185E-01 -1.10739268E-13  1.13783696E+00
  1.13783696E+00  1.74333954E-13  3.20534457E-01  3.20534457E-01  2.35302093E-15
 -8.94832189E-02  8.94832189E-02 -1.41689083E-13  2.83201484E-14 -8.21990384E-16
 -6.58671833E-16  6.83647718E-01 -6.83647718E-01  7.68721485E-13 -9.31867631E-14
 -2.48121242E-14  3.16883729E-14  4.49621541E-01 -4.04143051E+00  6.66318675E-02
 -6.78681248E-02  3.53251309E-01 -5.12028994E-15  3.11598669E-01  1.52109146E+00
 -5.18779838E-14  4.79854604E-14 -4.03341735E-13  1.80077613E-14 -4.20296701E-14
  4.03708651E-15  3.29248475E-02 -1.51869345E-13 -3.62283035E-14 -4.61646688E-01
 -1.01497762E-15  3.85294342E-15 -1.42045129E-14 -5.85546353E-14  5.29380870E-14