H                                                                       
SP        RHF                                                         Gen                 
Number of atoms                            I                2
Info1-9                                    I   N=           9
          22          21           0           0           0         110
           1           1           2
Charge                                     I                1
Multiplicity                               I                1
Number of electrons                        I                2
Number of alpha electrons                  I                1
Number of beta electrons                   I                1
Number of basis functions                  I                5
Number of independent functions            I                5
Number of point charges in /Mol/           I                0
Number of translation vectors              I                0
Atomic numbers                             I   N=           2
           1           2
Nuclear charges                            R   N=           2
  1.00000000E+00  2.00000000E+00
Current cartesian coordinates              R   N=           6
  0.00000000E+00  0.00000000E+00  0.00000000E+00  1.88972613E+00  0.00000000E+00
  0.00000000E+00
Force Field                                I                0
Int Atom Types                             I   N=           2
           0           0
MM charges                                 R   N=           2
  0.00000000E+00  0.00000000E+00
Integer atomic weights                     I   N=           2
           1           4
Real atomic weights                        R   N=           2
  1.00782504E+00  4.00260325E+00
Atom fragment info                         I   N=           2
           0           0
Atom residue num                           I   N=           2
           0           0
Nuclear spins                              I   N=           2
           1           0
Nuclear ZEff                               R   N=           2
 -1.00000000E+00 -2.00000000E+00
Nuclear ZNuc                               R   N=           2
  1.00000000E+00  2.00000000E+00
Nuclear QMom                               R   N=           2
  0.00000000E+00  0.00000000E+00
Nuclear GFac                               R   N=           2
  2.79284600E+00  0.00000000E+00
MicOpt                                     I   N=           2
          -1          -1
Number of contracted shells                I                3
Number of primitive shells                 I                3
Pure/Cartesian d shells                    I                1
Pure/Cartesian f shells                    I                1
Highest angular momentum                   I                1
Largest degree of contraction              I                1
Shell types                                I   N=           3
           0           1           0
Number of primitives per shell             I   N=           3
           1           1           1
Shell to atom map                          I   N=           3
           1           1           2
Primitive exponents                        R   N=           3
  5.00000000E-01  2.00000000E-01  1.00000000E-01
Contraction coefficients                   R   N=           3
  1.00000000E+00  1.00000000E+00  1.00000000E+00
Coordinates of each shell                  R   N=           9
  0.00000000E+00  0.00000000E+00  0.00000000E+00  0.00000000E+00  0.00000000E+00
  0.00000000E+00  1.88972613E+00  0.00000000E+00  0.00000000E+00
Constraint Structure                       R   N=           6
  0.00000000E+00  0.00000000E+00  0.00000000E+00  1.88972613E+00  0.00000000E+00
  0.00000000E+00
Num ILSW                                   I              100
ILSW                                       I   N=         100
           0           1           0           0           2           0
           0           0           0           0           0          -1
           5           0           0           1           0           0
           0           0           1           0           0           0
           1           1           0           0           0           0
           0           0      100000           0          -1           0
           0           0           0           0           0           0
           0           0           0           1           0           0
           0           0           1           0           0           0
           0           0           4          41           0           0
           0           0           0           0           0           0
           0           0           0           0           0           0
           0           0           0           0           0           0
           0           0           0           0           0           0
           0           0           0           0           0           0
           0           0           0           0           0           0
           0           0           0           0
Num RLSW                                   I               41
RLSW                                       R   N=          41
  1.00000000E+00  1.00000000E+00  1.00000000E+00  1.00000000E+00  1.00000000E+00
  0.00000000E+00  0.00000000E+00  1.00000000E+00  0.00000000E+00  0.00000000E+00
  0.00000000E+00  0.00000000E+00  1.00000000E+00  0.00000000E+00  0.00000000E+00
  0.00000000E+00  0.00000000E+00  1.00000000E+00  0.00000000E+00  0.00000000E+00
  0.00000000E+00  0.00000000E+00  1.00000000E+00  0.00000000E+00  0.00000000E+00
  0.00000000E+00  0.00000000E+00  1.00000000E+00  0.00000000E+00  0.00000000E+00
  0.00000000E+00  0.00000000E+00  0.00000000E+00  0.00000000E+00  0.00000000E+00
  0.00000000E+00  0.00000000E+00  0.00000000E+00  1.00000000E+00  1.00000000E+00
  0.00000000E+00
MxBond                                     I                1
NBond                                      I   N=           2
           0           0
IBond                                      I   N=           2
           0           0
RBond                                      R   N=           2
  0.00000000E+00  0.00000000E+00
Virial Ratio                               R      2.958696246891596E+00
SCF Energy                                 R     -1.582728014051549E+00
Total Energy                               R     -1.582728014051549E+00
RMS Density                                R      3.909970637306697E-11
External E-field                           R   N=          35
  0.00000000E+00  0.00000000E+00  0.00000000E+00  0.00000000E+00  0.00000000E+00
  0.00000000E+00  0.00000000E+00  0.00000000E+00  0.00000000E+00  0.00000000E+00
  0.00000000E+00  0.00000000E+00  0.00000000E+00  0.00000000E+00  0.00000000E+00
  0.00000000E+00  0.00000000E+00  0.00000000E+00  0.00000000E+00  0.00000000E+00
  0.00000000E+00  0.00000000E+00  0.00000000E+00  0.00000000E+00  0.00000000E+00
  0.00000000E+00  0.00000000E+00  0.00000000E+00  0.00000000E+00  0.00000000E+00
  0.00000000E+00  0.00000000E+00  0.00000000E+00  0.00000000E+00  0.00000000E+00
IOpCl                                      I                0
IROHF                                      I                0
Alpha Orbital Energies                     R   N=           5
 -1.05768375E+00 -1.74108350E-01  2.12956464E-02  2.12956464E-02  4.13343783E-02
Alpha MO coefficients                      R   N=          25
  5.45679033E-01  3.52568066E-01  1.64447645E-16 -2.64366323E-17  4.56855499E-01
  8.99400035E-01 -4.25728732E-01  7.05160114E-17 -6.63003746E-16 -5.31948786E-01
 -3.81120858E-16 -2.66065699E-15  1.81255803E-01  9.83435984E-01  2.17726033E-15
 -9.52882818E-17  3.68180227E-16  9.83435984E-01 -1.81255803E-01 -2.00996285E-16
 -5.19506971E-01 -9.83338138E-01 -1.70672196E-16 -2.31028611E-15  1.07582069E+00
Total SCF Density                          R   N=          15
  5.95531214E-01  3.84778002E-01  2.48608482E-01  1.79471264E-16  1.15957977E-16
  5.40860562E-32 -2.88518319E-17 -1.86414246E-17 -8.69488387E-33  1.39779106E-33
  4.98592933E-01  3.22145319E-01  1.50257622E-16 -2.41554417E-17  4.17433893E-01
Mulliken Charges                           R   N=           2
 -2.13352902E-01  1.21335290E+00
ONIOM Charges                              I   N=          16
           1           0           0           0           0           0
           0           0           0           0           0           0
           0           0           0           0
ONIOM Multiplicities                       I   N=          16
           1           0           0           0           0           0
           0           0           0           0           0           0
           0           0           0           0
Atom Layers                                I   N=           2
           1           1
Atom Modifiers                             I   N=           2
           0           0
Force Field                                I                0
Int Atom Modified Types                    I   N=           2
           0           0
Link Atoms                                 I   N=           2
           0           0
Atom Modified MM Charges                   R   N=           2
  0.00000000E+00  0.00000000E+00
Link Distances                             R   N=           8
  0.00000000E+00  0.00000000E+00  0.00000000E+00  0.00000000E+00  0.00000000E+00
  0.00000000E+00  0.00000000E+00  0.00000000E+00
Cartesian Gradient                         R   N=           6
  0.00000000E+00  0.00000000E+00  0.00000000E+00  0.00000000E+00  0.00000000E+00
  0.00000000E+00
Dipole Moment                              R   N=           3
  1.56034520E+00 -5.20166174E-16  8.36220052E-17
Quadrupole Moment                          R   N=           6
  2.67047463E+00 -1.33523731E+00 -1.33523731E+00 -4.93496245E-16  7.93345429E-17
  2.17372097E-32
QEq coupling tensors                       R   N=          12
 -5.12914768E-01  0.00000000E+00  2.56457384E-01  0.00000000E+00  0.00000000E+00
  2.56457384E-01 -6.91427533E-02  0.00000000E+00  3.45713767E-02  0.00000000E+00
  0.00000000E+00  3.45713767E-02
