 argument  1 = h2o.inp
                                         
                                         


              Northwest Computational Chemistry Package (NWChem) 6.6
              ------------------------------------------------------


                    Environmental Molecular Sciences Laboratory
                       Pacific Northwest National Laboratory
                                Richland, WA 99352

                              Copyright (c) 1994-2015
                       Pacific Northwest National Laboratory
                            Battelle Memorial Institute

             NWChem is an open-source computational chemistry package
                        distributed under the terms of the
                      Educational Community License (ECL) 2.0
             A copy of the license is included with this distribution
                              in the LICENSE.TXT file

                                  ACKNOWLEDGMENT
                                  --------------

            This software and its documentation were developed at the
            EMSL at Pacific Northwest National Laboratory, a multiprogram
            national laboratory, operated for the U.S. Department of Energy
            by Battelle under Contract Number DE-AC05-76RL01830. Support
            for this work was provided by the Department of Energy Office
            of Biological and Environmental Research, Office of Basic
            Energy Sciences, and the Office of Advanced Scientific Computing.


           Job information
           ---------------

    hostname        = R700
    program         = nwchem
    date            = Sat Nov 28 12:12:57 2015

    compiled        = Thu_Oct_22_13:27:42_2015
    source          = /home/samio/src/quantumChemistry/nwchem-6.6
    nwchem branch   = 6.6
    nwchem revision = 27746
    ga revision     = 10594
    input           = h2o.inp
    prefix          = h2o.
    data base       = ./h2o.db
    status          = startup
    nproc           =        1
    time left       =     -1s



           Memory information
           ------------------

    heap     =   13107194 doubles =    100.0 Mbytes
    stack    =   13107195 doubles =    100.0 Mbytes
    global   =   26214400 doubles =    200.0 Mbytes (distinct from heap & stack)
    total    =   52428789 doubles =    400.0 Mbytes
    verify   = yes
    hardfail = no 


           Directory information
           ---------------------

  0 permanent = .
  0 scratch   = .




                                NWChem Input Module
                                -------------------



 Scaling coordinates for geometry "geometry" by  1.889725989
 (inverse scale =  0.529177249)

 Turning off AUTOSYM since
 SYMMETRY directive was detected!


          ------
          auto-z
          ------


                             Geometry "geometry" -> ""
                             -------------------------

 Output coordinates in angstroms (scale by  1.889725989 to convert to a.u.)

  No.       Tag          Charge          X              Y              Z
 ---- ---------------- ---------- -------------- -------------- --------------
    1 H                    1.0000     0.00000000     0.00000000     0.00000000
    2 O                    8.0000     1.00000000     0.00000000     0.00000000
    3 H                    1.0000     1.00000000     1.00000000     0.00000000

      Atomic Mass 
      ----------- 

      H                  1.007825
      O                 15.994910


 Effective nuclear repulsion energy (a.u.)       8.8410208052

            Nuclear Dipole moment (a.u.) 
            ----------------------------
        X                 Y               Z
 ---------------- ---------------- ----------------
    17.0075338972     1.8897259886     0.0000000000



                                Z-matrix (autoz)
                                -------- 

 Units are Angstrom for bonds and degrees for angles

      Type          Name      I     J     K     L     M      Value
      ----------- --------  ----- ----- ----- ----- ----- ----------
    1 Stretch                  1     2                       1.00000
    2 Stretch                  2     3                       1.00000
    3 Bend                     1     2     3                90.00000


            XYZ format geometry
            -------------------
     3
 geometry
 H                     0.00000000     0.00000000     0.00000000
 O                     1.00000000     0.00000000     0.00000000
 H                     1.00000000     1.00000000     0.00000000

 ==============================================================================
                                internuclear distances
 ------------------------------------------------------------------------------
       center one      |      center two      | atomic units |  angstroms
 ------------------------------------------------------------------------------
    2 O                |   1 H                |     1.88973  |     1.00000
    3 H                |   2 O                |     1.88973  |     1.00000
 ------------------------------------------------------------------------------
                         number of included internuclear distances:          2
 ==============================================================================



 ==============================================================================
                                 internuclear angles
 ------------------------------------------------------------------------------
        center 1       |       center 2       |       center 3       |  degrees
 ------------------------------------------------------------------------------
    1 H                |   2 O                |   3 H                |    90.00
 ------------------------------------------------------------------------------
                            number of included internuclear angles:          1
 ==============================================================================



                      Basis "ao basis" -> "" (cartesian)
                      -----
  H (Hydrogen)
  ------------
            Exponent  Coefficients 
       -------------- ---------------------------------------------------------
  1 S  1.30100000E+01  0.019685
  1 S  1.96200000E+00  0.137977
  1 S  4.44600000E-01  0.478148

  2 S  1.22000000E-01  1.000000

  3 S  2.97400000E-02  1.000000

  4 P  7.27000000E-01  1.000000

  5 P  1.41000000E-01  1.000000

  O (Oxygen)
  ----------
            Exponent  Coefficients 
       -------------- ---------------------------------------------------------
  1 S  1.17200000E+04  0.000710
  1 S  1.75900000E+03  0.005470
  1 S  4.00800000E+02  0.027837
  1 S  1.13700000E+02  0.104800
  1 S  3.70300000E+01  0.283062
  1 S  1.32700000E+01  0.448719
  1 S  5.02500000E+00  0.270952
  1 S  1.01300000E+00  0.015458

  2 S  1.17200000E+04 -0.000160
  2 S  1.75900000E+03 -0.001263
  2 S  4.00800000E+02 -0.006267
  2 S  1.13700000E+02 -0.025716
  2 S  3.70300000E+01 -0.070924
  2 S  1.32700000E+01 -0.165411
  2 S  5.02500000E+00 -0.116955
  2 S  1.01300000E+00  0.557368

  3 S  3.02300000E-01  1.000000

  4 S  7.89600000E-02  1.000000

  5 P  1.77000000E+01  0.043018
  5 P  3.85400000E+00  0.228913
  5 P  1.04600000E+00  0.508728

  6 P  2.75300000E-01  1.000000

  7 P  6.85600000E-02  1.000000

  8 D  1.18500000E+00  1.000000

  9 D  3.32000000E-01  1.000000



 Summary of "ao basis" -> "" (cartesian)
 ------------------------------------------------------------------------------
       Tag                 Description            Shells   Functions and Types
 ---------------- ------------------------------  ------  ---------------------
 H                       user specified              5        9   3s2p
 O                       user specified              9       25   4s3p2d


                                 NWChem SCF Module
                                 -----------------



  ao basis        = "ao basis"
  functions       =    43
  atoms           =     3
  closed shells   =     5
  open shells     =     0
  charge          =   0.00
  wavefunction    = RHF 
  input vectors   = atomic
  output vectors  = ./h2o.movecs
  use symmetry    = F
  symmetry adapt  = F


 Summary of "ao basis" -> "ao basis" (cartesian)
 ------------------------------------------------------------------------------
       Tag                 Description            Shells   Functions and Types
 ---------------- ------------------------------  ------  ---------------------
 H                       user specified              5        9   3s2p
 O                       user specified              9       25   4s3p2d



 Forming initial guess at       0.0s


      Superposition of Atomic Density Guess
      -------------------------------------

 Sum of atomic energies:         -75.76548395

      Non-variational initial energy
      ------------------------------

 Total energy =     -75.865940
 1-e energy   =    -121.089190
 2-e energy   =      36.382229
 HOMO         =      -0.470706
 LUMO         =       0.007745


 Starting SCF solution at       0.1s



 ----------------------------------------------
         Quadratically convergent ROHF

 Convergence threshold     :          1.000E-04
 Maximum no. of iterations :           30
 Final Fock-matrix accuracy:          1.000E-07
 ----------------------------------------------


 Integral file          = ./h2o.aoints.0
 Record size in doubles =  65536        No. of integs per rec  =  43688
 Max. records in memory =     16        Max. records in file   =  30496
 No. of bits per label  =      8        No. of bits per value  =     64


 #quartets = 1.815D+04 #integrals = 1.696D+05 #direct =  0.0% #cached =100.0%


              iter       energy          gnorm     gmax       time
             ----- ------------------- --------- --------- --------
                 1      -75.9927362677  8.46D-01  2.52D-01      0.3
                 2      -76.0283992088  1.87D-01  7.31D-02      0.3
                 3      -76.0308237542  1.85D-02  7.33D-03      0.4
                 4      -76.0308597012  8.62D-05  2.62D-05      0.4


       Final RHF  results 
       ------------------ 

         Total SCF energy =    -76.030859701221
      One-electron energy =   -122.306230111354
      Two-electron energy =     37.434349604920
 Nuclear repulsion energy =      8.841020805213

        Time for solution =      0.2s


             Final eigenvalues
             -----------------

              1      
    1  -20.5892
    2   -1.3462
    3   -0.6677
    4   -0.6057
    5   -0.5100
    6    0.0332
    7    0.0590
    8    0.1692
    9    0.2002
   10    0.2195
   11    0.2371
   12    0.2713
   13    0.3496
   14    0.3664
   15    0.3914

                       ROHF Final Molecular Orbital Analysis
                       -------------------------------------

 Vector    2  Occ=2.000000D+00  E=-1.346208D+00
              MO Center=  8.7D-01,  1.3D-01, -1.7D-16, r^2= 5.0D-01
   Bfn.  Coefficient  Atom+Function         Bfn.  Coefficient  Atom+Function  
  ----- ------------  ---------------      ----- ------------  ---------------
    11      0.428286  2 O  s                 12      0.408314  2 O  s          
     1      0.199701  1 H  s                 35      0.199701  3 H  s          

 Vector    3  Occ=2.000000D+00  E=-6.676567D-01
              MO Center=  8.3D-01,  1.7D-01,  7.8D-17, r^2= 7.9D-01
   Bfn.  Coefficient  Atom+Function         Bfn.  Coefficient  Atom+Function  
  ----- ------------  ---------------      ----- ------------  ---------------
    14      0.357014  2 O  px                15      0.357014  2 O  py         
     1     -0.321400  1 H  s                 35      0.321400  3 H  s          
    17      0.173989  2 O  px                18      0.173989  2 O  py         

 Vector    4  Occ=2.000000D+00  E=-6.056832D-01
              MO Center=  1.0D+00,  3.2D-03,  1.5D-16, r^2= 7.6D-01
   Bfn.  Coefficient  Atom+Function         Bfn.  Coefficient  Atom+Function  
  ----- ------------  ---------------      ----- ------------  ---------------
    14      0.371703  2 O  px                15     -0.371703  2 O  py         
    12      0.348672  2 O  s                  1     -0.232835  1 H  s          
    35     -0.232835  3 H  s                 17      0.207040  2 O  px         
    18     -0.207040  2 O  py                11      0.165377  2 O  s          

 Vector    5  Occ=2.000000D+00  E=-5.100148D-01
              MO Center=  9.7D-01,  3.0D-02,  3.2D-16, r^2= 6.8D-01
   Bfn.  Coefficient  Atom+Function         Bfn.  Coefficient  Atom+Function  
  ----- ------------  ---------------      ----- ------------  ---------------
    16      0.630923  2 O  pz                19      0.450783  2 O  pz         

 Vector    6  Occ=0.000000D+00  E= 3.322450D-02
              MO Center=  2.4D-01,  7.6D-01, -3.8D-16, r^2= 1.1D+01
   Bfn.  Coefficient  Atom+Function         Bfn.  Coefficient  Atom+Function  
  ----- ------------  ---------------      ----- ------------  ---------------
    13      1.405672  2 O  s                  3     -0.809163  1 H  s          
    37     -0.809163  3 H  s                  2     -0.403008  1 H  s          
    36     -0.403008  3 H  s                 12      0.203767  2 O  s          
    20     -0.160940  2 O  px                21      0.160940  2 O  py         

 Vector    7  Occ=0.000000D+00  E= 5.900569D-02
              MO Center=  2.3D-01,  7.7D-01, -4.1D-17, r^2= 1.5D+01
   Bfn.  Coefficient  Atom+Function         Bfn.  Coefficient  Atom+Function  
  ----- ------------  ---------------      ----- ------------  ---------------
     3      3.087792  1 H  s                 37     -3.087792  3 H  s          
    20      0.520611  2 O  px                21      0.520611  2 O  py         
     2      0.500641  1 H  s                 36     -0.500641  3 H  s          
     7      0.165988  1 H  px                42      0.165988  3 H  py         

 Vector    8  Occ=0.000000D+00  E= 1.691874D-01
              MO Center=  1.1D+00, -5.3D-02, -5.6D-18, r^2= 8.6D+00
   Bfn.  Coefficient  Atom+Function         Bfn.  Coefficient  Atom+Function  
  ----- ------------  ---------------      ----- ------------  ---------------
    13      4.283244  2 O  s                  2     -1.993511  1 H  s          
    36     -1.993511  3 H  s                 20     -1.394776  2 O  px         
    21      1.394776  2 O  py                 3     -0.669122  1 H  s          
    37     -0.669122  3 H  s                  7     -0.568819  1 H  px         
    42      0.568819  3 H  py                12      0.415631  2 O  s          

 Vector    9  Occ=0.000000D+00  E= 2.002341D-01
              MO Center=  1.2D+00, -1.8D-01, -9.6D-16, r^2= 6.3D+00
   Bfn.  Coefficient  Atom+Function         Bfn.  Coefficient  Atom+Function  
  ----- ------------  ---------------      ----- ------------  ---------------
    22      1.383838  2 O  pz                19     -0.281757  2 O  pz         
     9     -0.227841  1 H  pz                43     -0.227841  3 H  pz         
    16     -0.176800  2 O  pz         

 Vector   10  Occ=0.000000D+00  E= 2.194674D-01
              MO Center=  9.2D-01,  8.4D-02,  6.5D-16, r^2= 7.3D+00
   Bfn.  Coefficient  Atom+Function         Bfn.  Coefficient  Atom+Function  
  ----- ------------  ---------------      ----- ------------  ---------------
    13      2.121101  2 O  s                  3     -0.609537  1 H  s          
    37     -0.609537  3 H  s                  7     -0.498515  1 H  px         
    42      0.498515  3 H  py                20      0.466324  2 O  px         
    21     -0.466324  2 O  py                11     -0.218291  2 O  s          

 Vector   11  Occ=0.000000D+00  E= 2.371451D-01
              MO Center=  1.1D+00, -1.3D-01,  1.7D-16, r^2= 9.6D+00
   Bfn.  Coefficient  Atom+Function         Bfn.  Coefficient  Atom+Function  
  ----- ------------  ---------------      ----- ------------  ---------------
     2      2.721017  1 H  s                 36     -2.721017  3 H  s          
     3      2.654615  1 H  s                 37     -2.654615  3 H  s          
    20      2.061543  2 O  px                21      2.061543  2 O  py         
     7      0.844258  1 H  px                42      0.844258  3 H  py         
    17      0.150882  2 O  px                18      0.150882  2 O  py         

 Vector   12  Occ=0.000000D+00  E= 2.713495D-01
              MO Center=  4.8D-01,  5.2D-01,  1.8D-16, r^2= 4.2D+00
   Bfn.  Coefficient  Atom+Function         Bfn.  Coefficient  Atom+Function  
  ----- ------------  ---------------      ----- ------------  ---------------
     2      0.761230  1 H  s                 36     -0.761230  3 H  s          
     3     -0.633219  1 H  s                  7     -0.633534  1 H  px         
    37      0.633219  3 H  s                 42     -0.633534  3 H  py         
    20      0.396688  2 O  px                21      0.396688  2 O  py         
    17      0.195782  2 O  px                18      0.195782  2 O  py         

 Vector   13  Occ=0.000000D+00  E= 3.495754D-01
              MO Center=  6.2D-01,  3.8D-01,  3.4D-16, r^2= 4.3D+00
   Bfn.  Coefficient  Atom+Function         Bfn.  Coefficient  Atom+Function  
  ----- ------------  ---------------      ----- ------------  ---------------
    13      3.522432  2 O  s                  2     -1.955717  1 H  s          
    36     -1.955717  3 H  s                  8      0.758170  1 H  py         
    41     -0.758170  3 H  px                20     -0.385403  2 O  px         
    21      0.385403  2 O  py                30      0.196554  2 O  dxy        
     3     -0.181636  1 H  s                 37     -0.181636  3 H  s          

 Vector   14  Occ=0.000000D+00  E= 3.663834D-01
              MO Center=  7.7D-01,  2.3D-01,  5.3D-16, r^2= 4.9D+00
   Bfn.  Coefficient  Atom+Function         Bfn.  Coefficient  Atom+Function  
  ----- ------------  ---------------      ----- ------------  ---------------
    13      4.472233  2 O  s                  2     -2.083147  1 H  s          
    36     -2.083147  3 H  s                 20     -1.291772  2 O  px         
    21      1.291772  2 O  py                 8     -0.476400  1 H  py         
    41      0.476400  3 H  px                17     -0.428671  2 O  px         
    18      0.428671  2 O  py                 7      0.355726  1 H  px         

 Vector   15  Occ=0.000000D+00  E= 3.914324D-01
              MO Center=  4.6D-01,  5.4D-01, -3.3D-16, r^2= 3.9D+00
   Bfn.  Coefficient  Atom+Function         Bfn.  Coefficient  Atom+Function  
  ----- ------------  ---------------      ----- ------------  ---------------
     9      1.190591  1 H  pz                43     -1.190591  3 H  pz         

 Vector   16  Occ=0.000000D+00  E= 4.072636D-01
              MO Center=  5.2D-01,  4.8D-01,  4.6D-17, r^2= 4.0D+00
   Bfn.  Coefficient  Atom+Function         Bfn.  Coefficient  Atom+Function  
  ----- ------------  ---------------      ----- ------------  ---------------
     9      1.089880  1 H  pz                43      1.089880  3 H  pz         
    22     -1.062902  2 O  pz                19     -0.571523  2 O  pz         

 Vector   17  Occ=0.000000D+00  E= 5.470002D-01
              MO Center=  5.2D-01,  4.8D-01,  2.4D-16, r^2= 5.0D+00
   Bfn.  Coefficient  Atom+Function         Bfn.  Coefficient  Atom+Function  
  ----- ------------  ---------------      ----- ------------  ---------------
     2      2.684256  1 H  s                  8      2.675345  1 H  py         
    36     -2.684256  3 H  s                 41      2.675345  3 H  px         
     7      1.125618  1 H  px                20     -1.124822  2 O  px         
    21     -1.124822  2 O  py                42      1.125618  3 H  py         
     3     -0.667924  1 H  s                 37      0.667924  3 H  s          


 center of mass
 --------------
 x =   1.78398174 y =   0.10574425 z =   0.00000000

 moments of inertia (a.u.)
 ------------------
           3.397616588225          -0.201391301930           0.000000000000
          -0.201391301930           3.397616588225           0.000000000000
           0.000000000000           0.000000000000           6.795233176450

  Mulliken analysis of the total density
  --------------------------------------

    Atom       Charge   Shell Charges
 -----------   ------   -------------------------------------------------------
    1 H    1     0.91   0.70  0.08 -0.00  0.08  0.05
    2 O    8     8.18   2.01  0.82  0.89  0.03  2.77  1.66  0.11  0.01 -0.10
    3 H    1     0.91   0.70  0.08 -0.00  0.08  0.05

       Multipole analysis of the density wrt the origin
       ------------------------------------------------

     L   x y z        total         open         nuclear
     -   - - -        -----         ----         -------
     0   0 0 0     -0.000000      0.000000     10.000000

     1   1 0 0     -0.627350      0.000000     17.007534
     1   0 1 0      0.627350      0.000000      1.889726
     1   0 0 1     -0.000000      0.000000      0.000000

     2   2 0 0     -6.104611      0.000000     32.139579
     2   1 1 0      1.298461      0.000000      3.571064
     2   1 0 1     -0.000000      0.000000      0.000000
     2   0 2 0     -3.733572      0.000000      3.571064
     2   0 1 1     -0.000000      0.000000      0.000000
     2   0 0 2     -5.698268      0.000000      0.000000


 Parallel integral file used       4 records with       0 large values


 Task  times  cpu:        0.4s     wall:        0.4s
 Summary of allocated global arrays
-----------------------------------
  No active global arrays



                         GA Statistics for process    0
                         ------------------------------

       create   destroy   get      put      acc     scatter   gather  read&inc
calls:  205      205     2616     1630     1755        0        0       51     
number of processes/call 1.00e+00 1.00e+00 1.00e+00 0.00e+00 0.00e+00
bytes total:             3.98e+06 2.55e+06 5.41e+05 0.00e+00 0.00e+00 2.04e+02
bytes remote:            0.00e+00 0.00e+00 0.00e+00 0.00e+00 0.00e+00 0.00e+00
Max memory consumed for GA by this process: 192296 bytes
MA_summarize_allocated_blocks: starting scan ...
MA_summarize_allocated_blocks: scan completed: 0 heap blocks, 0 stack blocks
MA usage statistics:

	allocation statistics:
					      heap	     stack
					      ----	     -----
	current number of blocks	         0	         0
	maximum number of blocks	        17	        14
	current total bytes		         0	         0
	maximum total bytes		   8400844	  22509724
	maximum total K-bytes		      8401	     22510
	maximum total M-bytes		         9	        23


                                NWChem Input Module
                                -------------------





                                     CITATION
                                     --------
                Please cite the following reference when publishing
                           results obtained with NWChem:

                 M. Valiev, E.J. Bylaska, N. Govind, K. Kowalski,
              T.P. Straatsma, H.J.J. van Dam, D. Wang, J. Nieplocha,
                        E. Apra, T.L. Windus, W.A. de Jong
                 "NWChem: a comprehensive and scalable open-source
                  solution for large scale molecular simulations"
                      Comput. Phys. Commun. 181, 1477 (2010)
                           doi:10.1016/j.cpc.2010.04.018

                                      AUTHORS
                                      -------
          E. Apra, E. J. Bylaska, W. A. de Jong, N. Govind, K. Kowalski,
       T. P. Straatsma, M. Valiev, H. J. J. van Dam, D. Wang, T. L. Windus,
        J. Hammond, J. Autschbach, K. Bhaskaran-Nair, J. Brabec, K. Lopata,
       S. A. Fischer, S. Krishnamoorthy, W. Ma, M. Klemm, O. Villa, Y. Chen,
    V. Anisimov, F. Aquino, S. Hirata, M. T. Hackler, T. Risthaus, M. Malagoli,
       A. Marenich, A. Otero-de-la-Roza, J. Mullin, P. Nichols, R. Peverati,
     J. Pittner, Y. Zhao, P.-D. Fan, A. Fonari, M. Williamson, R. J. Harrison,
       J. R. Rehr, M. Dupuis, D. Silverstein, D. M. A. Smith, J. Nieplocha,
        V. Tipparaju, M. Krishnan, B. E. Van Kuiken, A. Vazquez-Mayagoitia,
        L. Jensen, M. Swart, Q. Wu, T. Van Voorhis, A. A. Auer, M. Nooijen,
      L. D. Crosby, E. Brown, G. Cisneros, G. I. Fann, H. Fruchtl, J. Garza,
        K. Hirao, R. A. Kendall, J. A. Nichols, K. Tsemekhman, K. Wolinski,
     J. Anchell, D. E. Bernholdt, P. Borowski, T. Clark, D. Clerc, H. Dachsel,
   M. J. O. Deegan, K. Dyall, D. Elwood, E. Glendening, M. Gutowski, A. C. Hess,
         J. Jaffe, B. G. Johnson, J. Ju, R. Kobayashi, R. Kutteh, Z. Lin,
   R. Littlefield, X. Long, B. Meng, T. Nakajima, S. Niu, L. Pollack, M. Rosing,
   K. Glaesemann, G. Sandrone, M. Stave, H. Taylor, G. Thomas, J. H. van Lenthe,
                               A. T. Wong, Z. Zhang.

 Total times  cpu:        0.4s     wall:        0.4s
