 argument  1 = h2o.inp
                                         
                                         


              Northwest Computational Chemistry Package (NWChem) 6.6
              ------------------------------------------------------


                    Environmental Molecular Sciences Laboratory
                       Pacific Northwest National Laboratory
                                Richland, WA 99352

                              Copyright (c) 1994-2015
                       Pacific Northwest National Laboratory
                            Battelle Memorial Institute

             NWChem is an open-source computational chemistry package
                        distributed under the terms of the
                      Educational Community License (ECL) 2.0
             A copy of the license is included with this distribution
                              in the LICENSE.TXT file

                                  ACKNOWLEDGMENT
                                  --------------

            This software and its documentation were developed at the
            EMSL at Pacific Northwest National Laboratory, a multiprogram
            national laboratory, operated for the U.S. Department of Energy
            by Battelle under Contract Number DE-AC05-76RL01830. Support
            for this work was provided by the Department of Energy Office
            of Biological and Environmental Research, Office of Basic
            Energy Sciences, and the Office of Advanced Scientific Computing.


           Job information
           ---------------

    hostname        = R700
    program         = nwchem
    date            = Sun Nov 29 08:41:00 2015

    compiled        = Thu_Oct_22_13:27:42_2015
    source          = /home/samio/src/quantumChemistry/nwchem-6.6
    nwchem branch   = 6.6
    nwchem revision = 27746
    ga revision     = 10594
    input           = h2o.inp
    prefix          = h2o.
    data base       = ./h2o.db
    status          = startup
    nproc           =        1
    time left       =     -1s



           Memory information
           ------------------

    heap     =   13107194 doubles =    100.0 Mbytes
    stack    =   13107195 doubles =    100.0 Mbytes
    global   =   26214400 doubles =    200.0 Mbytes (distinct from heap & stack)
    total    =   52428789 doubles =    400.0 Mbytes
    verify   = yes
    hardfail = no 


           Directory information
           ---------------------

  0 permanent = .
  0 scratch   = .




                                NWChem Input Module
                                -------------------



 Scaling coordinates for geometry "geometry" by  1.889725989
 (inverse scale =  0.529177249)

 Turning off AUTOSYM since
 SYMMETRY directive was detected!


          ------
          auto-z
          ------


                             Geometry "geometry" -> ""
                             -------------------------

 Output coordinates in angstroms (scale by  1.889725989 to convert to a.u.)

  No.       Tag          Charge          X              Y              Z
 ---- ---------------- ---------- -------------- -------------- --------------
    1 H                    1.0000     0.00000000     0.00000000     0.00000000
    2 O                    8.0000     1.00000000     0.00000000     0.00000000
    3 H                    1.0000     1.00000000     1.00000000     0.00000000

      Atomic Mass 
      ----------- 

      H                  1.007825
      O                 15.994910


 Effective nuclear repulsion energy (a.u.)       8.8410208052

            Nuclear Dipole moment (a.u.) 
            ----------------------------
        X                 Y               Z
 ---------------- ---------------- ----------------
    17.0075338972     1.8897259886     0.0000000000



                                Z-matrix (autoz)
                                -------- 

 Units are Angstrom for bonds and degrees for angles

      Type          Name      I     J     K     L     M      Value
      ----------- --------  ----- ----- ----- ----- ----- ----------
    1 Stretch                  1     2                       1.00000
    2 Stretch                  2     3                       1.00000
    3 Bend                     1     2     3                90.00000


            XYZ format geometry
            -------------------
     3
 geometry
 H                     0.00000000     0.00000000     0.00000000
 O                     1.00000000     0.00000000     0.00000000
 H                     1.00000000     1.00000000     0.00000000

 ==============================================================================
                                internuclear distances
 ------------------------------------------------------------------------------
       center one      |      center two      | atomic units |  angstroms
 ------------------------------------------------------------------------------
    2 O                |   1 H                |     1.88973  |     1.00000
    3 H                |   2 O                |     1.88973  |     1.00000
 ------------------------------------------------------------------------------
                         number of included internuclear distances:          2
 ==============================================================================



 ==============================================================================
                                 internuclear angles
 ------------------------------------------------------------------------------
        center 1       |       center 2       |       center 3       |  degrees
 ------------------------------------------------------------------------------
    1 H                |   2 O                |   3 H                |    90.00
 ------------------------------------------------------------------------------
                            number of included internuclear angles:          1
 ==============================================================================



                      Basis "ao basis" -> "" (cartesian)
                      -----
  H (Hydrogen)
  ------------
            Exponent  Coefficients 
       -------------- ---------------------------------------------------------
  1 S  1.30100000E+01  0.019685
  1 S  1.96200000E+00  0.137977
  1 S  4.44600000E-01  0.478148

  2 S  1.22000000E-01  1.000000

  3 S  2.97400000E-02  1.000000

  4 P  7.27000000E-01  1.000000

  5 P  1.41000000E-01  1.000000

  O (Oxygen)
  ----------
            Exponent  Coefficients 
       -------------- ---------------------------------------------------------
  1 S  1.17200000E+04  0.000710
  1 S  1.75900000E+03  0.005470
  1 S  4.00800000E+02  0.027837
  1 S  1.13700000E+02  0.104800
  1 S  3.70300000E+01  0.283062
  1 S  1.32700000E+01  0.448719
  1 S  5.02500000E+00  0.270952
  1 S  1.01300000E+00  0.015458

  2 S  1.17200000E+04 -0.000160
  2 S  1.75900000E+03 -0.001263
  2 S  4.00800000E+02 -0.006267
  2 S  1.13700000E+02 -0.025716
  2 S  3.70300000E+01 -0.070924
  2 S  1.32700000E+01 -0.165411
  2 S  5.02500000E+00 -0.116955
  2 S  1.01300000E+00  0.557368

  3 S  3.02300000E-01  1.000000

  4 S  7.89600000E-02  1.000000

  5 P  1.77000000E+01  0.043018
  5 P  3.85400000E+00  0.228913
  5 P  1.04600000E+00  0.508728

  6 P  2.75300000E-01  1.000000

  7 P  6.85600000E-02  1.000000

  8 D  1.18500000E+00  1.000000

  9 D  3.32000000E-01  1.000000



 Summary of "ao basis" -> "" (cartesian)
 ------------------------------------------------------------------------------
       Tag                 Description            Shells   Functions and Types
 ---------------- ------------------------------  ------  ---------------------
 H                       user specified              5        9   3s2p
 O                       user specified              9       25   4s3p2d


                                 NWChem SCF Module
                                 -----------------



  ao basis        = "ao basis"
  functions       =    43
  atoms           =     3
  closed shells   =     5
  open shells     =     0
  charge          =   0.00
  wavefunction    = RHF 
  input vectors   = atomic
  output vectors  = ./h2o.movecs
  use symmetry    = F
  symmetry adapt  = F


 Summary of "ao basis" -> "ao basis" (cartesian)
 ------------------------------------------------------------------------------
       Tag                 Description            Shells   Functions and Types
 ---------------- ------------------------------  ------  ---------------------
 H                       user specified              5        9   3s2p
 O                       user specified              9       25   4s3p2d


 ====================================
 Begin kinetic 1-e integrals
 ====================================
1eke          1   H  s     1   H  s           0.96945723
1eke          2   H  s     1   H  s           0.20123413
1eke          3   H  s     1   H  s           0.02552464
1eke         10   O  s     1   H  s          -0.00574564
1eke         11   O  s     1   H  s           0.04119861
1eke         12   O  s     1   H  s           0.14422631
1eke         13   O  s     1   H  s           0.07385033
1eke         14   O  p     1   H  s          -0.18492235
1eke         17   O  p     1   H  s          -0.41064356
1eke         20   O  p     1   H  s          -0.09806669
1eke         23   O  d     1   H  s           0.28040298
1eke         26   O  d     1   H  s          -0.03301697
1eke         28   O  d     1   H  s          -0.03301697
1eke         29   O  d     1   H  s           0.47367005
1eke         32   O  d     1   H  s          -0.06668117
1eke         34   O  d     1   H  s          -0.06668117
1eke         35   H  s     1   H  s          -0.02203826
1eke         36   H  s     1   H  s           0.05321841
1eke         37   H  s     1   H  s           0.01810801
1eke         38   H  p     1   H  s          -0.02371097
1eke         39   H  p     1   H  s          -0.02371097
1eke         41   H  p     1   H  s          -0.13824317
1eke         42   H  p     1   H  s          -0.13824317
1eke          1   H  s     2   H  s           0.20123413
1eke          2   H  s     2   H  s           0.18300000
1eke          3   H  s     2   H  s           0.05074490
1eke         10   O  s     2   H  s           0.01723616
1eke         11   O  s     2   H  s           0.07556717
1eke         12   O  s     2   H  s           0.13058230
1eke         13   O  s     2   H  s           0.10363732
1eke         14   O  p     2   H  s          -0.04978756
1eke         17   O  p     2   H  s          -0.14828055
1eke         20   O  p     2   H  s          -0.10478207
1eke         23   O  d     2   H  s           0.08687354
1eke         26   O  d     2   H  s           0.06938634
1eke         28   O  d     2   H  s           0.06938634
1eke         29   O  d     2   H  s           0.14257716
1eke         32   O  d     2   H  s           0.07444465
1eke         34   O  d     2   H  s           0.07444465
1eke         35   H  s     2   H  s           0.05321841
1eke         36   H  s     2   H  s           0.08398992
1eke         37   H  s     2   H  s           0.03790808
1eke         38   H  p     2   H  s          -0.04728533
1eke         39   H  p     2   H  s          -0.04728533
1eke         41   H  p     2   H  s          -0.10929989
1eke         42   H  p     2   H  s          -0.10929989
1eke          1   H  s     3   H  s           0.02552464
1eke          2   H  s     3   H  s           0.05074490
1eke          3   H  s     3   H  s           0.04461000
1eke         10   O  s     3   H  s           0.00272153
1eke         11   O  s     3   H  s           0.01343124
1eke         12   O  s     3   H  s           0.02977648
1eke         13   O  s     3   H  s           0.04791442
1eke         14   O  p     3   H  s          -0.00203997
1eke         17   O  p     3   H  s          -0.01035957
1eke         20   O  p     3   H  s          -0.02463895
1eke         23   O  d     3   H  s           0.01406439
1eke         26   O  d     3   H  s           0.01388554
1eke         28   O  d     3   H  s           0.01388554
1eke         29   O  d     3   H  s           0.02932727
1eke         32   O  d     3   H  s           0.02805753
1eke         34   O  d     3   H  s           0.02805753
1eke         35   H  s     3   H  s           0.01810801
1eke         36   H  s     3   H  s           0.03790808
1eke         37   H  s     3   H  s           0.03727492
1eke         38   H  p     3   H  s          -0.00328223
1eke         39   H  p     3   H  s          -0.00328223
1eke         41   H  p     3   H  s          -0.01564690
1eke         42   H  p     3   H  s          -0.01564690
1eke          4   H  p     4   H  p           1.81750000
1eke          5   H  p     5   H  p           1.81750000
1eke          6   H  p     6   H  p           1.81750000
1eke          7   H  p     4   H  p           0.27600782
1eke          8   H  p     5   H  p           0.27600782
1eke          9   H  p     6   H  p           0.27600782
1eke         10   O  s     4   H  p           0.01880964
1eke         11   O  s     4   H  p           0.36003098
1eke         12   O  s     4   H  p           0.28480882
1eke         13   O  s     4   H  p           0.03590130
1eke         14   O  p     4   H  p          -0.78500290
1eke         15   O  p     5   H  p           0.13437133
1eke         16   O  p     6   H  p           0.13437133
1eke         17   O  p     4   H  p          -0.32242404
1eke         18   O  p     5   H  p           0.26335718
1eke         19   O  p     6   H  p           0.26335718
1eke         20   O  p     4   H  p           0.01915641
1eke         21   O  p     5   H  p           0.05381690
1eke         22   O  p     6   H  p           0.05381690
1eke         23   O  d     4   H  p           0.90352000
1eke         26   O  d     4   H  p           0.06840780
1eke         28   O  d     4   H  p           0.06840780
1eke         24   O  d     5   H  p          -0.28601296
1eke         25   O  d     6   H  p          -0.28601296
1eke         29   O  d     4   H  p           0.05754964
1eke         32   O  d     4   H  p          -0.03325282
1eke         34   O  d     4   H  p          -0.03325282
1eke         30   O  d     5   H  p          -0.38833301
1eke         31   O  d     6   H  p          -0.38833301
1eke         35   H  s     4   H  p           0.02371097
1eke         35   H  s     5   H  p           0.02371097
1eke         36   H  s     4   H  p           0.04728533
1eke         36   H  s     5   H  p           0.04728533
1eke         37   H  s     4   H  p           0.00328223
1eke         37   H  s     5   H  p           0.00328223
1eke         38   H  p     4   H  p          -0.13240358
1eke         39   H  p     4   H  p          -0.12719108
1eke         38   H  p     5   H  p          -0.12719108
1eke         39   H  p     5   H  p          -0.13240358
1eke         40   H  p     6   H  p          -0.00521250
1eke         41   H  p     4   H  p          -0.02774485
1eke         42   H  p     4   H  p          -0.10642721
1eke         41   H  p     5   H  p          -0.10642721
1eke         42   H  p     5   H  p          -0.02774485
1eke         43   H  p     6   H  p           0.07868236
1eke          4   H  p     7   H  p           0.27600782
1eke          5   H  p     8   H  p           0.27600782
1eke          6   H  p     9   H  p           0.27600782
1eke          7   H  p     7   H  p           0.35250000
1eke          8   H  p     8   H  p           0.35250000
1eke          9   H  p     9   H  p           0.35250000
1eke         10   O  s     7   H  p           0.05344164
1eke         11   O  s     7   H  p           0.19926060
1eke         12   O  s     7   H  p           0.25595534
1eke         13   O  s     7   H  p           0.09381274
1eke         14   O  p     7   H  p          -0.03047291
1eke         15   O  p     8   H  p           0.09144208
1eke         16   O  p     9   H  p           0.09144208
1eke         17   O  p     7   H  p           0.00674842
1eke         18   O  p     8   H  p           0.25248863
1eke         19   O  p     9   H  p           0.25248863
1eke         20   O  p     7   H  p           0.08251813
1eke         21   O  p     8   H  p           0.15585552
1eke         22   O  p     9   H  p           0.15585552
1eke         23   O  d     7   H  p           0.16685630
1eke         26   O  d     7   H  p           0.19659888
1eke         28   O  d     7   H  p           0.19659888
1eke         24   O  d     8   H  p          -0.03694832
1eke         25   O  d     9   H  p          -0.03694832
1eke         29   O  d     7   H  p           0.02886830
1eke         32   O  d     7   H  p           0.16909168
1eke         34   O  d     7   H  p           0.16909168
1eke         30   O  d     8   H  p          -0.13123181
1eke         31   O  d     9   H  p          -0.13123181
1eke         35   H  s     7   H  p           0.13824317
1eke         35   H  s     8   H  p           0.13824317
1eke         36   H  s     7   H  p           0.10929989
1eke         36   H  s     8   H  p           0.10929989
1eke         37   H  s     7   H  p           0.01564690
1eke         37   H  s     8   H  p           0.01564690
1eke         38   H  p     7   H  p          -0.02774485
1eke         39   H  p     7   H  p          -0.10642721
1eke         38   H  p     8   H  p          -0.10642721
1eke         39   H  p     8   H  p          -0.02774485
1eke         40   H  p     9   H  p           0.07868236
1eke         41   H  p     7   H  p           0.04156128
1eke         42   H  p     7   H  p          -0.12857937
1eke         41   H  p     8   H  p          -0.12857937
1eke         42   H  p     8   H  p           0.04156128
1eke         43   H  p     9   H  p           0.17014064
1eke          1   H  s    10   O  s          -0.00574564
1eke          2   H  s    10   O  s           0.01723616
1eke          3   H  s    10   O  s           0.00272153
1eke          4   H  p    10   O  s           0.01880964
1eke          7   H  p    10   O  s           0.05344164
1eke         10   O  s    10   O  s          29.18664173
1eke         11   O  s    10   O  s         -15.94965622
1eke         12   O  s    10   O  s           0.16779580
1eke         13   O  s    10   O  s           0.01755754
1eke         23   O  d    10   O  s          -0.74506977
1eke         26   O  d    10   O  s          -0.74506977
1eke         28   O  d    10   O  s          -0.74506977
1eke         29   O  d    10   O  s          -0.13208059
1eke         32   O  d    10   O  s          -0.13208059
1eke         34   O  d    10   O  s          -0.13208059
1eke         35   H  s    10   O  s          -0.00574564
1eke         36   H  s    10   O  s           0.01723616
1eke         37   H  s    10   O  s           0.00272153
1eke         39   H  p    10   O  s          -0.01880964
1eke         42   H  p    10   O  s          -0.05344164
1eke          1   H  s    11   O  s           0.04119861
1eke          2   H  s    11   O  s           0.07556717
1eke          3   H  s    11   O  s           0.01343124
1eke          4   H  p    11   O  s           0.36003098
1eke          7   H  p    11   O  s           0.19926060
1eke         10   O  s    11   O  s         -15.94965622
1eke         11   O  s    11   O  s          10.36110421
1eke         12   O  s    11   O  s           0.47126333
1eke         13   O  s    11   O  s           0.07748952
1eke         23   O  d    11   O  s           1.01062733
1eke         26   O  d    11   O  s           1.01062733
1eke         28   O  d    11   O  s           1.01062733
1eke         29   O  d    11   O  s          -0.09811016
1eke         32   O  d    11   O  s          -0.09811016
1eke         34   O  d    11   O  s          -0.09811016
1eke         35   H  s    11   O  s           0.04119861
1eke         36   H  s    11   O  s           0.07556717
1eke         37   H  s    11   O  s           0.01343124
1eke         39   H  p    11   O  s          -0.36003098
1eke         42   H  p    11   O  s          -0.19926060
1eke          1   H  s    12   O  s           0.14422631
1eke          2   H  s    12   O  s           0.13058230
1eke          3   H  s    12   O  s           0.02977648
1eke          4   H  p    12   O  s           0.28480882
1eke          7   H  p    12   O  s           0.25595534
1eke         10   O  s    12   O  s           0.16779580
1eke         11   O  s    12   O  s           0.47126333
1eke         12   O  s    12   O  s           0.45345000
1eke         13   O  s    12   O  s           0.13703844
1eke         23   O  d    12   O  s           0.39835852
1eke         26   O  d    12   O  s           0.39835852
1eke         28   O  d    12   O  s           0.39835852
1eke         29   O  d    12   O  s           0.11255430
1eke         32   O  d    12   O  s           0.11255430
1eke         34   O  d    12   O  s           0.11255430
1eke         35   H  s    12   O  s           0.14422631
1eke         36   H  s    12   O  s           0.13058230
1eke         37   H  s    12   O  s           0.02977648
1eke         39   H  p    12   O  s          -0.28480882
1eke         42   H  p    12   O  s          -0.25595534
1eke          1   H  s    13   O  s           0.07385033
1eke          2   H  s    13   O  s           0.10363732
1eke          3   H  s    13   O  s           0.04791442
1eke          4   H  p    13   O  s           0.03590130
1eke          7   H  p    13   O  s           0.09381274
1eke         10   O  s    13   O  s           0.01755754
1eke         11   O  s    13   O  s           0.07748952
1eke         12   O  s    13   O  s           0.13703844
1eke         13   O  s    13   O  s           0.11844000
1eke         23   O  d    13   O  s           0.07736118
1eke         26   O  d    13   O  s           0.07736118
1eke         28   O  d    13   O  s           0.07736118
1eke         29   O  d    13   O  s           0.10506439
1eke         32   O  d    13   O  s           0.10506439
1eke         34   O  d    13   O  s           0.10506439
1eke         35   H  s    13   O  s           0.07385033
1eke         36   H  s    13   O  s           0.10363732
1eke         37   H  s    13   O  s           0.04791442
1eke         39   H  p    13   O  s          -0.03590130
1eke         42   H  p    13   O  s          -0.09381274
1eke          1   H  s    14   O  p          -0.18492235
1eke          2   H  s    14   O  p          -0.04978756
1eke          3   H  s    14   O  p          -0.00203997
1eke          4   H  p    14   O  p          -0.78500290
1eke          5   H  p    15   O  p           0.13437133
1eke          6   H  p    16   O  p           0.13437133
1eke          7   H  p    14   O  p          -0.03047291
1eke          8   H  p    15   O  p           0.09144208
1eke          9   H  p    16   O  p           0.09144208
1eke         14   O  p    14   O  p           4.32482633
1eke         15   O  p    15   O  p           4.32482633
1eke         16   O  p    16   O  p           4.32482633
1eke         17   O  p    14   O  p           0.55816890
1eke         18   O  p    15   O  p           0.55816890
1eke         19   O  p    16   O  p           0.55816890
1eke         20   O  p    14   O  p           0.04223860
1eke         21   O  p    15   O  p           0.04223860
1eke         22   O  p    16   O  p           0.04223860
1eke         35   H  s    15   O  p           0.18492235
1eke         36   H  s    15   O  p           0.04978756
1eke         37   H  s    15   O  p           0.00203997
1eke         38   H  p    14   O  p           0.13437133
1eke         39   H  p    15   O  p          -0.78500290
1eke         40   H  p    16   O  p           0.13437133
1eke         41   H  p    14   O  p           0.09144208
1eke         42   H  p    15   O  p          -0.03047291
1eke         43   H  p    16   O  p           0.09144208
1eke          1   H  s    17   O  p          -0.41064356
1eke          2   H  s    17   O  p          -0.14828055
1eke          3   H  s    17   O  p          -0.01035957
1eke          4   H  p    17   O  p          -0.32242404
1eke          5   H  p    18   O  p           0.26335718
1eke          6   H  p    19   O  p           0.26335718
1eke          7   H  p    17   O  p           0.00674842
1eke          8   H  p    18   O  p           0.25248863
1eke          9   H  p    19   O  p           0.25248863
1eke         14   O  p    17   O  p           0.55816890
1eke         15   O  p    18   O  p           0.55816890
1eke         16   O  p    19   O  p           0.55816890
1eke         17   O  p    17   O  p           0.68825000
1eke         18   O  p    18   O  p           0.68825000
1eke         19   O  p    19   O  p           0.68825000
1eke         20   O  p    17   O  p           0.15665075
1eke         21   O  p    18   O  p           0.15665075
1eke         22   O  p    19   O  p           0.15665075
1eke         35   H  s    18   O  p           0.41064356
1eke         36   H  s    18   O  p           0.14828055
1eke         37   H  s    18   O  p           0.01035957
1eke         38   H  p    17   O  p           0.26335718
1eke         39   H  p    18   O  p          -0.32242404
1eke         40   H  p    19   O  p           0.26335718
1eke         41   H  p    17   O  p           0.25248863
1eke         42   H  p    18   O  p           0.00674842
1eke         43   H  p    19   O  p           0.25248863
1eke          1   H  s    20   O  p          -0.09806669
1eke          2   H  s    20   O  p          -0.10478207
1eke          3   H  s    20   O  p          -0.02463895
1eke          4   H  p    20   O  p           0.01915641
1eke          5   H  p    21   O  p           0.05381690
1eke          6   H  p    22   O  p           0.05381690
1eke          7   H  p    20   O  p           0.08251813
1eke          8   H  p    21   O  p           0.15585552
1eke          9   H  p    22   O  p           0.15585552
1eke         14   O  p    20   O  p           0.04223860
1eke         15   O  p    21   O  p           0.04223860
1eke         16   O  p    22   O  p           0.04223860
1eke         17   O  p    20   O  p           0.15665075
1eke         18   O  p    21   O  p           0.15665075
1eke         19   O  p    22   O  p           0.15665075
1eke         20   O  p    20   O  p           0.17140000
1eke         21   O  p    21   O  p           0.17140000
1eke         22   O  p    22   O  p           0.17140000
1eke         35   H  s    21   O  p           0.09806669
1eke         36   H  s    21   O  p           0.10478207
1eke         37   H  s    21   O  p           0.02463895
1eke         38   H  p    20   O  p           0.05381690
1eke         39   H  p    21   O  p           0.01915641
1eke         40   H  p    22   O  p           0.05381690
1eke         41   H  p    20   O  p           0.15585552
1eke         42   H  p    21   O  p           0.08251813
1eke         43   H  p    22   O  p           0.15585552
1eke          1   H  s    23   O  d           0.28040298
1eke          1   H  s    26   O  d          -0.03301697
1eke          1   H  s    28   O  d          -0.03301697
1eke          2   H  s    23   O  d           0.08687354
1eke          2   H  s    26   O  d           0.06938634
1eke          2   H  s    28   O  d           0.06938634
1eke          3   H  s    23   O  d           0.01406439
1eke          3   H  s    26   O  d           0.01388554
1eke          3   H  s    28   O  d           0.01388554
1eke          4   H  p    23   O  d           0.90352000
1eke          5   H  p    24   O  d          -0.28601296
1eke          6   H  p    25   O  d          -0.28601296
1eke          4   H  p    26   O  d           0.06840780
1eke          4   H  p    28   O  d           0.06840780
1eke          7   H  p    23   O  d           0.16685630
1eke          8   H  p    24   O  d          -0.03694832
1eke          9   H  p    25   O  d          -0.03694832
1eke          7   H  p    26   O  d           0.19659888
1eke          7   H  p    28   O  d           0.19659888
1eke         10   O  s    23   O  d          -0.74506977
1eke         10   O  s    26   O  d          -0.74506977
1eke         10   O  s    28   O  d          -0.74506977
1eke         11   O  s    23   O  d           1.01062733
1eke         11   O  s    26   O  d           1.01062733
1eke         11   O  s    28   O  d           1.01062733
1eke         12   O  s    23   O  d           0.39835852
1eke         12   O  s    26   O  d           0.39835852
1eke         12   O  s    28   O  d           0.39835852
1eke         13   O  s    23   O  d           0.07736118
1eke         13   O  s    26   O  d           0.07736118
1eke         13   O  s    28   O  d           0.07736118
1eke         23   O  d    23   O  d           2.56750000
1eke         26   O  d    23   O  d          -0.19750000
1eke         28   O  d    23   O  d          -0.19750000
1eke         24   O  d    24   O  d           1.38250000
1eke         25   O  d    25   O  d           1.38250000
1eke         23   O  d    26   O  d          -0.19750000
1eke         26   O  d    26   O  d           2.56750000
1eke         28   O  d    26   O  d          -0.19750000
1eke         27   O  d    27   O  d           1.38250000
1eke         23   O  d    28   O  d          -0.19750000
1eke         26   O  d    28   O  d          -0.19750000
1eke         28   O  d    28   O  d           2.56750000
1eke         29   O  d    23   O  d           0.41346477
1eke         32   O  d    23   O  d          -0.20888115
1eke         34   O  d    23   O  d          -0.20888115
1eke         30   O  d    24   O  d           0.31117296
1eke         31   O  d    25   O  d           0.31117296
1eke         29   O  d    26   O  d          -0.20888115
1eke         32   O  d    26   O  d           0.41346477
1eke         34   O  d    26   O  d          -0.20888115
1eke         33   O  d    27   O  d           0.31117296
1eke         29   O  d    28   O  d          -0.20888115
1eke         32   O  d    28   O  d          -0.20888115
1eke         34   O  d    28   O  d           0.41346477
1eke         35   H  s    23   O  d          -0.03301697
1eke         35   H  s    26   O  d           0.28040298
1eke         35   H  s    28   O  d          -0.03301697
1eke         36   H  s    23   O  d           0.06938634
1eke         36   H  s    26   O  d           0.08687354
1eke         36   H  s    28   O  d           0.06938634
1eke         37   H  s    23   O  d           0.01388554
1eke         37   H  s    26   O  d           0.01406439
1eke         37   H  s    28   O  d           0.01388554
1eke         39   H  p    23   O  d          -0.06840780
1eke         38   H  p    24   O  d           0.28601296
1eke         39   H  p    26   O  d          -0.90352000
1eke         40   H  p    27   O  d           0.28601296
1eke         39   H  p    28   O  d          -0.06840780
1eke         42   H  p    23   O  d          -0.19659888
1eke         41   H  p    24   O  d           0.03694832
1eke         42   H  p    26   O  d          -0.16685630
1eke         43   H  p    27   O  d           0.03694832
1eke         42   H  p    28   O  d          -0.19659888
1eke          1   H  s    29   O  d           0.47367005
1eke          1   H  s    32   O  d          -0.06668117
1eke          1   H  s    34   O  d          -0.06668117
1eke          2   H  s    29   O  d           0.14257716
1eke          2   H  s    32   O  d           0.07444465
1eke          2   H  s    34   O  d           0.07444465
1eke          3   H  s    29   O  d           0.02932727
1eke          3   H  s    32   O  d           0.02805753
1eke          3   H  s    34   O  d           0.02805753
1eke          4   H  p    29   O  d           0.05754964
1eke          5   H  p    30   O  d          -0.38833301
1eke          6   H  p    31   O  d          -0.38833301
1eke          4   H  p    32   O  d          -0.03325282
1eke          4   H  p    34   O  d          -0.03325282
1eke          7   H  p    29   O  d           0.02886830
1eke          8   H  p    30   O  d          -0.13123181
1eke          9   H  p    31   O  d          -0.13123181
1eke          7   H  p    32   O  d           0.16909168
1eke          7   H  p    34   O  d           0.16909168
1eke         10   O  s    29   O  d          -0.13208059
1eke         10   O  s    32   O  d          -0.13208059
1eke         10   O  s    34   O  d          -0.13208059
1eke         11   O  s    29   O  d          -0.09811016
1eke         11   O  s    32   O  d          -0.09811016
1eke         11   O  s    34   O  d          -0.09811016
1eke         12   O  s    29   O  d           0.11255430
1eke         12   O  s    32   O  d           0.11255430
1eke         12   O  s    34   O  d           0.11255430
1eke         13   O  s    29   O  d           0.10506439
1eke         13   O  s    32   O  d           0.10506439
1eke         13   O  s    34   O  d           0.10506439
1eke         23   O  d    29   O  d           0.41346477
1eke         26   O  d    29   O  d          -0.20888115
1eke         28   O  d    29   O  d          -0.20888115
1eke         24   O  d    30   O  d           0.31117296
1eke         25   O  d    31   O  d           0.31117296
1eke         23   O  d    32   O  d          -0.20888115
1eke         26   O  d    32   O  d           0.41346477
1eke         28   O  d    32   O  d          -0.20888115
1eke         27   O  d    33   O  d           0.31117296
1eke         23   O  d    34   O  d          -0.20888115
1eke         26   O  d    34   O  d          -0.20888115
1eke         28   O  d    34   O  d           0.41346477
1eke         29   O  d    29   O  d           0.71933333
1eke         32   O  d    29   O  d          -0.05533333
1eke         34   O  d    29   O  d          -0.05533333
1eke         30   O  d    30   O  d           0.38733333
1eke         31   O  d    31   O  d           0.38733333
1eke         29   O  d    32   O  d          -0.05533333
1eke         32   O  d    32   O  d           0.71933333
1eke         34   O  d    32   O  d          -0.05533333
1eke         33   O  d    33   O  d           0.38733333
1eke         29   O  d    34   O  d          -0.05533333
1eke         32   O  d    34   O  d          -0.05533333
1eke         34   O  d    34   O  d           0.71933333
1eke         35   H  s    29   O  d          -0.06668117
1eke         35   H  s    32   O  d           0.47367005
1eke         35   H  s    34   O  d          -0.06668117
1eke         36   H  s    29   O  d           0.07444465
1eke         36   H  s    32   O  d           0.14257716
1eke         36   H  s    34   O  d           0.07444465
1eke         37   H  s    29   O  d           0.02805753
1eke         37   H  s    32   O  d           0.02932727
1eke         37   H  s    34   O  d           0.02805753
1eke         39   H  p    29   O  d           0.03325282
1eke         38   H  p    30   O  d           0.38833301
1eke         39   H  p    32   O  d          -0.05754964
1eke         40   H  p    33   O  d           0.38833301
1eke         39   H  p    34   O  d           0.03325282
1eke         42   H  p    29   O  d          -0.16909168
1eke         41   H  p    30   O  d           0.13123181
1eke         42   H  p    32   O  d          -0.02886830
1eke         43   H  p    33   O  d           0.13123181
1eke         42   H  p    34   O  d          -0.16909168
1eke          1   H  s    35   H  s          -0.02203826
1eke          2   H  s    35   H  s           0.05321841
1eke          3   H  s    35   H  s           0.01810801
1eke          4   H  p    35   H  s           0.02371097
1eke          5   H  p    35   H  s           0.02371097
1eke          7   H  p    35   H  s           0.13824317
1eke          8   H  p    35   H  s           0.13824317
1eke         10   O  s    35   H  s          -0.00574564
1eke         11   O  s    35   H  s           0.04119861
1eke         12   O  s    35   H  s           0.14422631
1eke         13   O  s    35   H  s           0.07385033
1eke         15   O  p    35   H  s           0.18492235
1eke         18   O  p    35   H  s           0.41064356
1eke         21   O  p    35   H  s           0.09806669
1eke         23   O  d    35   H  s          -0.03301697
1eke         26   O  d    35   H  s           0.28040298
1eke         28   O  d    35   H  s          -0.03301697
1eke         29   O  d    35   H  s          -0.06668117
1eke         32   O  d    35   H  s           0.47367005
1eke         34   O  d    35   H  s          -0.06668117
1eke         35   H  s    35   H  s           0.96945723
1eke         36   H  s    35   H  s           0.20123413
1eke         37   H  s    35   H  s           0.02552464
1eke          1   H  s    36   H  s           0.05321841
1eke          2   H  s    36   H  s           0.08398992
1eke          3   H  s    36   H  s           0.03790808
1eke          4   H  p    36   H  s           0.04728533
1eke          5   H  p    36   H  s           0.04728533
1eke          7   H  p    36   H  s           0.10929989
1eke          8   H  p    36   H  s           0.10929989
1eke         10   O  s    36   H  s           0.01723616
1eke         11   O  s    36   H  s           0.07556717
1eke         12   O  s    36   H  s           0.13058230
1eke         13   O  s    36   H  s           0.10363732
1eke         15   O  p    36   H  s           0.04978756
1eke         18   O  p    36   H  s           0.14828055
1eke         21   O  p    36   H  s           0.10478207
1eke         23   O  d    36   H  s           0.06938634
1eke         26   O  d    36   H  s           0.08687354
1eke         28   O  d    36   H  s           0.06938634
1eke         29   O  d    36   H  s           0.07444465
1eke         32   O  d    36   H  s           0.14257716
1eke         34   O  d    36   H  s           0.07444465
1eke         35   H  s    36   H  s           0.20123413
1eke         36   H  s    36   H  s           0.18300000
1eke         37   H  s    36   H  s           0.05074490
1eke          1   H  s    37   H  s           0.01810801
1eke          2   H  s    37   H  s           0.03790808
1eke          3   H  s    37   H  s           0.03727492
1eke          4   H  p    37   H  s           0.00328223
1eke          5   H  p    37   H  s           0.00328223
1eke          7   H  p    37   H  s           0.01564690
1eke          8   H  p    37   H  s           0.01564690
1eke         10   O  s    37   H  s           0.00272153
1eke         11   O  s    37   H  s           0.01343124
1eke         12   O  s    37   H  s           0.02977648
1eke         13   O  s    37   H  s           0.04791442
1eke         15   O  p    37   H  s           0.00203997
1eke         18   O  p    37   H  s           0.01035957
1eke         21   O  p    37   H  s           0.02463895
1eke         23   O  d    37   H  s           0.01388554
1eke         26   O  d    37   H  s           0.01406439
1eke         28   O  d    37   H  s           0.01388554
1eke         29   O  d    37   H  s           0.02805753
1eke         32   O  d    37   H  s           0.02932727
1eke         34   O  d    37   H  s           0.02805753
1eke         35   H  s    37   H  s           0.02552464
1eke         36   H  s    37   H  s           0.05074490
1eke         37   H  s    37   H  s           0.04461000
1eke          1   H  s    38   H  p          -0.02371097
1eke          1   H  s    39   H  p          -0.02371097
1eke          2   H  s    38   H  p          -0.04728533
1eke          2   H  s    39   H  p          -0.04728533
1eke          3   H  s    38   H  p          -0.00328223
1eke          3   H  s    39   H  p          -0.00328223
1eke          4   H  p    38   H  p          -0.13240358
1eke          5   H  p    38   H  p          -0.12719108
1eke          4   H  p    39   H  p          -0.12719108
1eke          5   H  p    39   H  p          -0.13240358
1eke          6   H  p    40   H  p          -0.00521250
1eke          7   H  p    38   H  p          -0.02774485
1eke          8   H  p    38   H  p          -0.10642721
1eke          7   H  p    39   H  p          -0.10642721
1eke          8   H  p    39   H  p          -0.02774485
1eke          9   H  p    40   H  p           0.07868236
1eke         10   O  s    39   H  p          -0.01880964
1eke         11   O  s    39   H  p          -0.36003098
1eke         12   O  s    39   H  p          -0.28480882
1eke         13   O  s    39   H  p          -0.03590130
1eke         14   O  p    38   H  p           0.13437133
1eke         15   O  p    39   H  p          -0.78500290
1eke         16   O  p    40   H  p           0.13437133
1eke         17   O  p    38   H  p           0.26335718
1eke         18   O  p    39   H  p          -0.32242404
1eke         19   O  p    40   H  p           0.26335718
1eke         20   O  p    38   H  p           0.05381690
1eke         21   O  p    39   H  p           0.01915641
1eke         22   O  p    40   H  p           0.05381690
1eke         24   O  d    38   H  p           0.28601296
1eke         23   O  d    39   H  p          -0.06840780
1eke         26   O  d    39   H  p          -0.90352000
1eke         28   O  d    39   H  p          -0.06840780
1eke         27   O  d    40   H  p           0.28601296
1eke         30   O  d    38   H  p           0.38833301
1eke         29   O  d    39   H  p           0.03325282
1eke         32   O  d    39   H  p          -0.05754964
1eke         34   O  d    39   H  p           0.03325282
1eke         33   O  d    40   H  p           0.38833301
1eke         38   H  p    38   H  p           1.81750000
1eke         39   H  p    39   H  p           1.81750000
1eke         40   H  p    40   H  p           1.81750000
1eke         41   H  p    38   H  p           0.27600782
1eke         42   H  p    39   H  p           0.27600782
1eke         43   H  p    40   H  p           0.27600782
1eke          1   H  s    41   H  p          -0.13824317
1eke          1   H  s    42   H  p          -0.13824317
1eke          2   H  s    41   H  p          -0.10929989
1eke          2   H  s    42   H  p          -0.10929989
1eke          3   H  s    41   H  p          -0.01564690
1eke          3   H  s    42   H  p          -0.01564690
1eke          4   H  p    41   H  p          -0.02774485
1eke          5   H  p    41   H  p          -0.10642721
1eke          4   H  p    42   H  p          -0.10642721
1eke          5   H  p    42   H  p          -0.02774485
1eke          6   H  p    43   H  p           0.07868236
1eke          7   H  p    41   H  p           0.04156128
1eke          8   H  p    41   H  p          -0.12857937
1eke          7   H  p    42   H  p          -0.12857937
1eke          8   H  p    42   H  p           0.04156128
1eke          9   H  p    43   H  p           0.17014064
1eke         10   O  s    42   H  p          -0.05344164
1eke         11   O  s    42   H  p          -0.19926060
1eke         12   O  s    42   H  p          -0.25595534
1eke         13   O  s    42   H  p          -0.09381274
1eke         14   O  p    41   H  p           0.09144208
1eke         15   O  p    42   H  p          -0.03047291
1eke         16   O  p    43   H  p           0.09144208
1eke         17   O  p    41   H  p           0.25248863
1eke         18   O  p    42   H  p           0.00674842
1eke         19   O  p    43   H  p           0.25248863
1eke         20   O  p    41   H  p           0.15585552
1eke         21   O  p    42   H  p           0.08251813
1eke         22   O  p    43   H  p           0.15585552
1eke         24   O  d    41   H  p           0.03694832
1eke         23   O  d    42   H  p          -0.19659888
1eke         26   O  d    42   H  p          -0.16685630
1eke         28   O  d    42   H  p          -0.19659888
1eke         27   O  d    43   H  p           0.03694832
1eke         30   O  d    41   H  p           0.13123181
1eke         29   O  d    42   H  p          -0.16909168
1eke         32   O  d    42   H  p          -0.02886830
1eke         34   O  d    42   H  p          -0.16909168
1eke         33   O  d    43   H  p           0.13123181
1eke         38   H  p    41   H  p           0.27600782
1eke         39   H  p    42   H  p           0.27600782
1eke         40   H  p    43   H  p           0.27600782
1eke         41   H  p    41   H  p           0.35250000
1eke         42   H  p    42   H  p           0.35250000
1eke         43   H  p    43   H  p           0.35250000
 ====================================
 End kinetic 1-e integrals
 ====================================
 ====================================
 Begin overlap 1-e integrals
 ====================================
1eov          1   H  s     1   H  s           1.00000000
1eov          2   H  s     1   H  s           0.68486025
1eov          3   H  s     1   H  s           0.30373020
1eov         10   O  s     1   H  s           0.04745710
1eov         11   O  s     1   H  s           0.25081306
1eov         12   O  s     1   H  s           0.46982243
1eov         13   O  s     1   H  s           0.43221881
1eov         14   O  p     1   H  s          -0.26282257
1eov         17   O  p     1   H  s          -0.61591079
1eov         20   O  p     1   H  s          -0.35664052
1eov         23   O  d     1   H  s           0.40808679
1eov         26   O  d     1   H  s           0.18805909
1eov         28   O  d     1   H  s           0.18805909
1eov         29   O  d     1   H  s           0.67897957
1eov         32   O  d     1   H  s           0.20897954
1eov         34   O  d     1   H  s           0.20897954
1eov         35   H  s     1   H  s           0.15554366
1eov         36   H  s     1   H  s           0.34057030
1eov         37   H  s     1   H  s           0.24865743
1eov         38   H  p     1   H  s          -0.14330547
1eov         39   H  p     1   H  s          -0.14330547
1eov         41   H  p     1   H  s          -0.36734402
1eov         42   H  p     1   H  s          -0.36734402
1eov          1   H  s     2   H  s           0.68486025
1eov          2   H  s     2   H  s           1.00000000
1eov          3   H  s     2   H  s           0.70740882
1eov         10   O  s     2   H  s           0.06728655
1eov         11   O  s     2   H  s           0.31521806
1eov         12   O  s     2   H  s           0.63143499
1eov         13   O  s     2   H  s           0.81351004
1eov         14   O  p     2   H  s          -0.10730240
1eov         17   O  p     2   H  s          -0.39898521
1eov         20   O  p     2   H  s          -0.50937631
1eov         23   O  d     2   H  s           0.33846568
1eov         26   O  d     2   H  s           0.31300755
1eov         28   O  d     2   H  s           0.31300755
1eov         29   O  d     2   H  s           0.63261486
1eov         32   O  d     2   H  s           0.51259215
1eov         34   O  d     2   H  s           0.51259215
1eov         35   H  s     2   H  s           0.34057030
1eov         36   H  s     2   H  s           0.64683124
1eov         37   H  s     2   H  s           0.59635262
1eov         38   H  p     2   H  s          -0.12903644
1eov         39   H  p     2   H  s          -0.12903644
1eov         41   H  p     2   H  s          -0.41101715
1eov         42   H  p     2   H  s          -0.41101715
1eov          1   H  s     3   H  s           0.30373020
1eov          2   H  s     3   H  s           0.70740882
1eov          3   H  s     3   H  s           1.00000000
1eov         10   O  s     3   H  s           0.03300470
1eov         11   O  s     3   H  s           0.16693736
1eov         12   O  s     3   H  s           0.39183328
1eov         13   O  s     3   H  s           0.77939471
1eov         14   O  p     3   H  s          -0.01469132
1eov         17   O  p     3   H  s          -0.08027116
1eov         20   O  p     3   H  s          -0.24482515
1eov         23   O  d     3   H  s           0.17541920
1eov         26   O  d     3   H  s           0.17451169
1eov         28   O  d     3   H  s           0.17451169
1eov         29   O  d     3   H  s           0.39829728
1eov         32   O  d     3   H  s           0.39146128
1eov         34   O  d     3   H  s           0.39146128
1eov         35   H  s     3   H  s           0.24865743
1eov         36   H  s     3   H  s           0.59635262
1eov         37   H  s     3   H  s           0.89924168
1eov         38   H  p     3   H  s          -0.02501785
1eov         39   H  p     3   H  s          -0.02501785
1eov         41   H  p     3   H  s          -0.13703356
1eov         42   H  p     3   H  s          -0.13703356
1eov          4   H  p     4   H  p           1.00000000
1eov          5   H  p     5   H  p           1.00000000
1eov          6   H  p     6   H  p           1.00000000
1eov          7   H  p     4   H  p           0.46743107
1eov          8   H  p     5   H  p           0.46743107
1eov          9   H  p     6   H  p           0.46743107
1eov         10   O  s     4   H  p           0.09547379
1eov         11   O  s     4   H  p           0.37693294
1eov         12   O  s     4   H  p           0.38385125
1eov         13   O  s     4   H  p           0.11223010
1eov         14   O  p     4   H  p          -0.37699173
1eov         15   O  p     5   H  p           0.17141666
1eov         16   O  p     6   H  p           0.17141666
1eov         17   O  p     4   H  p          -0.15727094
1eov         18   O  p     5   H  p           0.36903545
1eov         19   O  p     6   H  p           0.36903545
1eov         20   O  p     4   H  p           0.10425389
1eov         21   O  p     5   H  p           0.18868318
1eov         22   O  p     6   H  p           0.18868318
1eov         23   O  d     4   H  p           0.47802441
1eov         26   O  d     4   H  p           0.27358279
1eov         28   O  d     4   H  p           0.27358279
1eov         24   O  d     5   H  p          -0.16784362
1eov         25   O  d     6   H  p          -0.16784362
1eov         29   O  d     4   H  p           0.02679454
1eov         32   O  d     4   H  p           0.14483724
1eov         34   O  d     4   H  p           0.14483724
1eov         30   O  d     5   H  p          -0.31715865
1eov         31   O  d     6   H  p          -0.31715865
1eov         35   H  s     4   H  p           0.14330547
1eov         35   H  s     5   H  p           0.14330547
1eov         36   H  s     4   H  p           0.12903644
1eov         36   H  s     5   H  p           0.12903644
1eov         37   H  s     4   H  p           0.02501785
1eov         37   H  s     5   H  p           0.02501785
1eov         38   H  p     4   H  p          -0.11900846
1eov         39   H  p     4   H  p          -0.19356752
1eov         38   H  p     5   H  p          -0.19356752
1eov         39   H  p     5   H  p          -0.11900846
1eov         40   H  p     6   H  p           0.07455906
1eov         41   H  p     4   H  p           0.03148123
1eov         42   H  p     4   H  p          -0.16961786
1eov         41   H  p     5   H  p          -0.16961786
1eov         42   H  p     5   H  p           0.03148123
1eov         43   H  p     6   H  p           0.20109909
1eov          4   H  p     7   H  p           0.46743107
1eov          5   H  p     8   H  p           0.46743107
1eov          6   H  p     9   H  p           0.46743107
1eov          7   H  p     7   H  p           1.00000000
1eov          8   H  p     8   H  p           1.00000000
1eov          9   H  p     9   H  p           1.00000000
1eov         10   O  s     7   H  p           0.09673289
1eov         11   O  s     7   H  p           0.39719227
1eov         12   O  s     7   H  p           0.61716063
1eov         13   O  s     7   H  p           0.39957827
1eov         14   O  p     7   H  p           0.01851945
1eov         15   O  p     8   H  p           0.17767341
1eov         16   O  p     9   H  p           0.17767341
1eov         17   O  p     7   H  p           0.20870428
1eov         18   O  p     8   H  p           0.62478380
1eov         19   O  p     9   H  p           0.62478380
1eov         20   O  p     7   H  p           0.48506005
1eov         21   O  p     8   H  p           0.72339252
1eov         22   O  p     9   H  p           0.72339252
1eov         23   O  d     7   H  p           0.35110841
1eov         26   O  d     7   H  p           0.40398673
1eov         28   O  d     7   H  p           0.40398673
1eov         24   O  d     8   H  p          -0.04806931
1eov         25   O  d     9   H  p          -0.04806931
1eov         29   O  d     7   H  p           0.22365356
1eov         32   O  d     7   H  p           0.49612778
1eov         34   O  d     7   H  p           0.49612778
1eov         30   O  d     8   H  p          -0.21070487
1eov         31   O  d     9   H  p          -0.21070487
1eov         35   H  s     7   H  p           0.36734402
1eov         35   H  s     8   H  p           0.36734402
1eov         36   H  s     7   H  p           0.41101715
1eov         36   H  s     8   H  p           0.41101715
1eov         37   H  s     7   H  p           0.13703356
1eov         37   H  s     8   H  p           0.13703356
1eov         38   H  p     7   H  p           0.03148123
1eov         39   H  p     7   H  p          -0.16961786
1eov         38   H  p     8   H  p          -0.16961786
1eov         39   H  p     8   H  p           0.03148123
1eov         40   H  p     9   H  p           0.20109909
1eov         41   H  p     7   H  p           0.30007217
1eov         42   H  p     7   H  p          -0.30432722
1eov         41   H  p     8   H  p          -0.30432722
1eov         42   H  p     8   H  p           0.30007217
1eov         43   H  p     9   H  p           0.60439938
1eov          1   H  s    10   O  s           0.04745710
1eov          2   H  s    10   O  s           0.06728655
1eov          3   H  s    10   O  s           0.03300470
1eov          4   H  p    10   O  s           0.09547379
1eov          7   H  p    10   O  s           0.09673289
1eov         10   O  s    10   O  s           1.00000000
1eov         11   O  s    10   O  s          -0.21406265
1eov         12   O  s    10   O  s           0.19438415
1eov         13   O  s    10   O  s           0.07522736
1eov         23   O  d    10   O  s           0.07058641
1eov         26   O  d    10   O  s           0.07058641
1eov         28   O  d    10   O  s           0.07058641
1eov         29   O  d    10   O  s           0.01243242
1eov         32   O  d    10   O  s           0.01243242
1eov         34   O  d    10   O  s           0.01243242
1eov         35   H  s    10   O  s           0.04745710
1eov         36   H  s    10   O  s           0.06728655
1eov         37   H  s    10   O  s           0.03300470
1eov         39   H  p    10   O  s          -0.09547379
1eov         42   H  p    10   O  s          -0.09673289
1eov          1   H  s    11   O  s           0.25081306
1eov          2   H  s    11   O  s           0.31521806
1eov          3   H  s    11   O  s           0.16693736
1eov          4   H  p    11   O  s           0.37693294
1eov          7   H  p    11   O  s           0.39719227
1eov         10   O  s    11   O  s          -0.21406265
1eov         11   O  s    11   O  s           1.00000000
1eov         12   O  s    11   O  s           0.70860733
1eov         13   O  s    11   O  s           0.35609530
1eov         23   O  d    11   O  s           0.62990641
1eov         26   O  d    11   O  s           0.62990641
1eov         28   O  d    11   O  s           0.62990641
1eov         29   O  d    11   O  s           0.24281702
1eov         32   O  d    11   O  s           0.24281702
1eov         34   O  d    11   O  s           0.24281702
1eov         35   H  s    11   O  s           0.25081306
1eov         36   H  s    11   O  s           0.31521806
1eov         37   H  s    11   O  s           0.16693736
1eov         39   H  p    11   O  s          -0.37693294
1eov         42   H  p    11   O  s          -0.39719227
1eov          1   H  s    12   O  s           0.46982243
1eov          2   H  s    12   O  s           0.63143499
1eov          3   H  s    12   O  s           0.39183328
1eov          4   H  p    12   O  s           0.38385125
1eov          7   H  p    12   O  s           0.61716063
1eov         10   O  s    12   O  s           0.19438415
1eov         11   O  s    12   O  s           0.70860733
1eov         12   O  s    12   O  s           1.00000000
1eov         13   O  s    12   O  s           0.72962061
1eov         23   O  d    12   O  s           0.66428377
1eov         26   O  d    12   O  s           0.66428377
1eov         28   O  d    12   O  s           0.66428377
1eov         29   O  d    12   O  s           0.60338963
1eov         32   O  d    12   O  s           0.60338963
1eov         34   O  d    12   O  s           0.60338963
1eov         35   H  s    12   O  s           0.46982243
1eov         36   H  s    12   O  s           0.63143499
1eov         37   H  s    12   O  s           0.39183328
1eov         39   H  p    12   O  s          -0.38385125
1eov         42   H  p    12   O  s          -0.61716063
1eov          1   H  s    13   O  s           0.43221881
1eov          2   H  s    13   O  s           0.81351004
1eov          3   H  s    13   O  s           0.77939471
1eov          4   H  p    13   O  s           0.11223010
1eov          7   H  p    13   O  s           0.39957827
1eov         10   O  s    13   O  s           0.07522736
1eov         11   O  s    13   O  s           0.35609530
1eov         12   O  s    13   O  s           0.72962061
1eov         13   O  s    13   O  s           1.00000000
1eov         23   O  d    13   O  s           0.36453859
1eov         26   O  d    13   O  s           0.36453859
1eov         28   O  d    13   O  s           0.36453859
1eov         29   O  d    13   O  s           0.65247290
1eov         32   O  d    13   O  s           0.65247290
1eov         34   O  d    13   O  s           0.65247290
1eov         35   H  s    13   O  s           0.43221881
1eov         36   H  s    13   O  s           0.81351004
1eov         37   H  s    13   O  s           0.77939471
1eov         39   H  p    13   O  s          -0.11223010
1eov         42   H  p    13   O  s          -0.39957827
1eov          1   H  s    14   O  p          -0.26282257
1eov          2   H  s    14   O  p          -0.10730240
1eov          3   H  s    14   O  p          -0.01469132
1eov          4   H  p    14   O  p          -0.37699173
1eov          5   H  p    15   O  p           0.17141666
1eov          6   H  p    16   O  p           0.17141666
1eov          7   H  p    14   O  p           0.01851945
1eov          8   H  p    15   O  p           0.17767341
1eov          9   H  p    16   O  p           0.17767341
1eov         14   O  p    14   O  p           1.00000000
1eov         15   O  p    15   O  p           1.00000000
1eov         16   O  p    16   O  p           1.00000000
1eov         17   O  p    14   O  p           0.50127148
1eov         18   O  p    15   O  p           0.50127148
1eov         19   O  p    16   O  p           0.50127148
1eov         20   O  p    14   O  p           0.13072148
1eov         21   O  p    15   O  p           0.13072148
1eov         22   O  p    16   O  p           0.13072148
1eov         35   H  s    15   O  p           0.26282257
1eov         36   H  s    15   O  p           0.10730240
1eov         37   H  s    15   O  p           0.01469132
1eov         38   H  p    14   O  p           0.17141666
1eov         39   H  p    15   O  p          -0.37699173
1eov         40   H  p    16   O  p           0.17141666
1eov         41   H  p    14   O  p           0.17767341
1eov         42   H  p    15   O  p           0.01851945
1eov         43   H  p    16   O  p           0.17767341
1eov          1   H  s    17   O  p          -0.61591079
1eov          2   H  s    17   O  p          -0.39898521
1eov          3   H  s    17   O  p          -0.08027116
1eov          4   H  p    17   O  p          -0.15727094
1eov          5   H  p    18   O  p           0.36903545
1eov          6   H  p    19   O  p           0.36903545
1eov          7   H  p    17   O  p           0.20870428
1eov          8   H  p    18   O  p           0.62478380
1eov          9   H  p    19   O  p           0.62478380
1eov         14   O  p    17   O  p           0.50127148
1eov         15   O  p    18   O  p           0.50127148
1eov         16   O  p    19   O  p           0.50127148
1eov         17   O  p    17   O  p           1.00000000
1eov         18   O  p    18   O  p           1.00000000
1eov         19   O  p    19   O  p           1.00000000
1eov         20   O  p    17   O  p           0.57077786
1eov         21   O  p    18   O  p           0.57077786
1eov         22   O  p    19   O  p           0.57077786
1eov         35   H  s    18   O  p           0.61591079
1eov         36   H  s    18   O  p           0.39898521
1eov         37   H  s    18   O  p           0.08027116
1eov         38   H  p    17   O  p           0.36903545
1eov         39   H  p    18   O  p          -0.15727094
1eov         40   H  p    19   O  p           0.36903545
1eov         41   H  p    17   O  p           0.62478380
1eov         42   H  p    18   O  p           0.20870428
1eov         43   H  p    19   O  p           0.62478380
1eov          1   H  s    20   O  p          -0.35664052
1eov          2   H  s    20   O  p          -0.50937631
1eov          3   H  s    20   O  p          -0.24482515
1eov          4   H  p    20   O  p           0.10425389
1eov          5   H  p    21   O  p           0.18868318
1eov          6   H  p    22   O  p           0.18868318
1eov          7   H  p    20   O  p           0.48506005
1eov          8   H  p    21   O  p           0.72339252
1eov          9   H  p    22   O  p           0.72339252
1eov         14   O  p    20   O  p           0.13072148
1eov         15   O  p    21   O  p           0.13072148
1eov         16   O  p    22   O  p           0.13072148
1eov         17   O  p    20   O  p           0.57077786
1eov         18   O  p    21   O  p           0.57077786
1eov         19   O  p    22   O  p           0.57077786
1eov         20   O  p    20   O  p           1.00000000
1eov         21   O  p    21   O  p           1.00000000
1eov         22   O  p    22   O  p           1.00000000
1eov         35   H  s    21   O  p           0.35664052
1eov         36   H  s    21   O  p           0.50937631
1eov         37   H  s    21   O  p           0.24482515
1eov         38   H  p    20   O  p           0.18868318
1eov         39   H  p    21   O  p           0.10425389
1eov         40   H  p    22   O  p           0.18868318
1eov         41   H  p    20   O  p           0.72339252
1eov         42   H  p    21   O  p           0.48506005
1eov         43   H  p    22   O  p           0.72339252
1eov          1   H  s    23   O  d           0.40808679
1eov          1   H  s    26   O  d           0.18805909
1eov          1   H  s    28   O  d           0.18805909
1eov          2   H  s    23   O  d           0.33846568
1eov          2   H  s    26   O  d           0.31300755
1eov          2   H  s    28   O  d           0.31300755
1eov          3   H  s    23   O  d           0.17541920
1eov          3   H  s    26   O  d           0.17451169
1eov          3   H  s    28   O  d           0.17451169
1eov          4   H  p    23   O  d           0.47802441
1eov          5   H  p    24   O  d          -0.16784362
1eov          6   H  p    25   O  d          -0.16784362
1eov          4   H  p    26   O  d           0.27358279
1eov          4   H  p    28   O  d           0.27358279
1eov          7   H  p    23   O  d           0.35110841
1eov          8   H  p    24   O  d          -0.04806931
1eov          9   H  p    25   O  d          -0.04806931
1eov          7   H  p    26   O  d           0.40398673
1eov          7   H  p    28   O  d           0.40398673
1eov         10   O  s    23   O  d           0.07058641
1eov         10   O  s    26   O  d           0.07058641
1eov         10   O  s    28   O  d           0.07058641
1eov         11   O  s    23   O  d           0.62990641
1eov         11   O  s    26   O  d           0.62990641
1eov         11   O  s    28   O  d           0.62990641
1eov         12   O  s    23   O  d           0.66428377
1eov         12   O  s    26   O  d           0.66428377
1eov         12   O  s    28   O  d           0.66428377
1eov         13   O  s    23   O  d           0.36453859
1eov         13   O  s    26   O  d           0.36453859
1eov         13   O  s    28   O  d           0.36453859
1eov         23   O  d    23   O  d           1.00000000
1eov         26   O  d    23   O  d           0.33333333
1eov         28   O  d    23   O  d           0.33333333
1eov         24   O  d    24   O  d           0.33333333
1eov         25   O  d    25   O  d           0.33333333
1eov         23   O  d    26   O  d           0.33333333
1eov         26   O  d    26   O  d           1.00000000
1eov         28   O  d    26   O  d           0.33333333
1eov         27   O  d    27   O  d           0.33333333
1eov         23   O  d    28   O  d           0.33333333
1eov         26   O  d    28   O  d           0.33333333
1eov         28   O  d    28   O  d           1.00000000
1eov         29   O  d    23   O  d           0.51422621
1eov         32   O  d    23   O  d           0.17140874
1eov         34   O  d    23   O  d           0.17140874
1eov         30   O  d    24   O  d           0.17140874
1eov         31   O  d    25   O  d           0.17140874
1eov         29   O  d    26   O  d           0.17140874
1eov         32   O  d    26   O  d           0.51422621
1eov         34   O  d    26   O  d           0.17140874
1eov         33   O  d    27   O  d           0.17140874
1eov         29   O  d    28   O  d           0.17140874
1eov         32   O  d    28   O  d           0.17140874
1eov         34   O  d    28   O  d           0.51422621
1eov         35   H  s    23   O  d           0.18805909
1eov         35   H  s    26   O  d           0.40808679
1eov         35   H  s    28   O  d           0.18805909
1eov         36   H  s    23   O  d           0.31300755
1eov         36   H  s    26   O  d           0.33846568
1eov         36   H  s    28   O  d           0.31300755
1eov         37   H  s    23   O  d           0.17451169
1eov         37   H  s    26   O  d           0.17541920
1eov         37   H  s    28   O  d           0.17451169
1eov         39   H  p    23   O  d          -0.27358279
1eov         38   H  p    24   O  d           0.16784362
1eov         39   H  p    26   O  d          -0.47802441
1eov         40   H  p    27   O  d           0.16784362
1eov         39   H  p    28   O  d          -0.27358279
1eov         42   H  p    23   O  d          -0.40398673
1eov         41   H  p    24   O  d           0.04806931
1eov         42   H  p    26   O  d          -0.35110841
1eov         43   H  p    27   O  d           0.04806931
1eov         42   H  p    28   O  d          -0.40398673
1eov          1   H  s    29   O  d           0.67897957
1eov          1   H  s    32   O  d           0.20897954
1eov          1   H  s    34   O  d           0.20897954
1eov          2   H  s    29   O  d           0.63261486
1eov          2   H  s    32   O  d           0.51259215
1eov          2   H  s    34   O  d           0.51259215
1eov          3   H  s    29   O  d           0.39829728
1eov          3   H  s    32   O  d           0.39146128
1eov          3   H  s    34   O  d           0.39146128
1eov          4   H  p    29   O  d           0.02679454
1eov          5   H  p    30   O  d          -0.31715865
1eov          6   H  p    31   O  d          -0.31715865
1eov          4   H  p    32   O  d           0.14483724
1eov          4   H  p    34   O  d           0.14483724
1eov          7   H  p    29   O  d           0.22365356
1eov          8   H  p    30   O  d          -0.21070487
1eov          9   H  p    31   O  d          -0.21070487
1eov          7   H  p    32   O  d           0.49612778
1eov          7   H  p    34   O  d           0.49612778
1eov         10   O  s    29   O  d           0.01243242
1eov         10   O  s    32   O  d           0.01243242
1eov         10   O  s    34   O  d           0.01243242
1eov         11   O  s    29   O  d           0.24281702
1eov         11   O  s    32   O  d           0.24281702
1eov         11   O  s    34   O  d           0.24281702
1eov         12   O  s    29   O  d           0.60338963
1eov         12   O  s    32   O  d           0.60338963
1eov         12   O  s    34   O  d           0.60338963
1eov         13   O  s    29   O  d           0.65247290
1eov         13   O  s    32   O  d           0.65247290
1eov         13   O  s    34   O  d           0.65247290
1eov         23   O  d    29   O  d           0.51422621
1eov         26   O  d    29   O  d           0.17140874
1eov         28   O  d    29   O  d           0.17140874
1eov         24   O  d    30   O  d           0.17140874
1eov         25   O  d    31   O  d           0.17140874
1eov         23   O  d    32   O  d           0.17140874
1eov         26   O  d    32   O  d           0.51422621
1eov         28   O  d    32   O  d           0.17140874
1eov         27   O  d    33   O  d           0.17140874
1eov         23   O  d    34   O  d           0.17140874
1eov         26   O  d    34   O  d           0.17140874
1eov         28   O  d    34   O  d           0.51422621
1eov         29   O  d    29   O  d           1.00000000
1eov         32   O  d    29   O  d           0.33333333
1eov         34   O  d    29   O  d           0.33333333
1eov         30   O  d    30   O  d           0.33333333
1eov         31   O  d    31   O  d           0.33333333
1eov         29   O  d    32   O  d           0.33333333
1eov         32   O  d    32   O  d           1.00000000
1eov         34   O  d    32   O  d           0.33333333
1eov         33   O  d    33   O  d           0.33333333
1eov         29   O  d    34   O  d           0.33333333
1eov         32   O  d    34   O  d           0.33333333
1eov         34   O  d    34   O  d           1.00000000
1eov         35   H  s    29   O  d           0.20897954
1eov         35   H  s    32   O  d           0.67897957
1eov         35   H  s    34   O  d           0.20897954
1eov         36   H  s    29   O  d           0.51259215
1eov         36   H  s    32   O  d           0.63261486
1eov         36   H  s    34   O  d           0.51259215
1eov         37   H  s    29   O  d           0.39146128
1eov         37   H  s    32   O  d           0.39829728
1eov         37   H  s    34   O  d           0.39146128
1eov         39   H  p    29   O  d          -0.14483724
1eov         38   H  p    30   O  d           0.31715865
1eov         39   H  p    32   O  d          -0.02679454
1eov         40   H  p    33   O  d           0.31715865
1eov         39   H  p    34   O  d          -0.14483724
1eov         42   H  p    29   O  d          -0.49612778
1eov         41   H  p    30   O  d           0.21070487
1eov         42   H  p    32   O  d          -0.22365356
1eov         43   H  p    33   O  d           0.21070487
1eov         42   H  p    34   O  d          -0.49612778
1eov          1   H  s    35   H  s           0.15554366
1eov          2   H  s    35   H  s           0.34057030
1eov          3   H  s    35   H  s           0.24865743
1eov          4   H  p    35   H  s           0.14330547
1eov          5   H  p    35   H  s           0.14330547
1eov          7   H  p    35   H  s           0.36734402
1eov          8   H  p    35   H  s           0.36734402
1eov         10   O  s    35   H  s           0.04745710
1eov         11   O  s    35   H  s           0.25081306
1eov         12   O  s    35   H  s           0.46982243
1eov         13   O  s    35   H  s           0.43221881
1eov         15   O  p    35   H  s           0.26282257
1eov         18   O  p    35   H  s           0.61591079
1eov         21   O  p    35   H  s           0.35664052
1eov         23   O  d    35   H  s           0.18805909
1eov         26   O  d    35   H  s           0.40808679
1eov         28   O  d    35   H  s           0.18805909
1eov         29   O  d    35   H  s           0.20897954
1eov         32   O  d    35   H  s           0.67897957
1eov         34   O  d    35   H  s           0.20897954
1eov         35   H  s    35   H  s           1.00000000
1eov         36   H  s    35   H  s           0.68486025
1eov         37   H  s    35   H  s           0.30373020
1eov          1   H  s    36   H  s           0.34057030
1eov          2   H  s    36   H  s           0.64683124
1eov          3   H  s    36   H  s           0.59635262
1eov          4   H  p    36   H  s           0.12903644
1eov          5   H  p    36   H  s           0.12903644
1eov          7   H  p    36   H  s           0.41101715
1eov          8   H  p    36   H  s           0.41101715
1eov         10   O  s    36   H  s           0.06728655
1eov         11   O  s    36   H  s           0.31521806
1eov         12   O  s    36   H  s           0.63143499
1eov         13   O  s    36   H  s           0.81351004
1eov         15   O  p    36   H  s           0.10730240
1eov         18   O  p    36   H  s           0.39898521
1eov         21   O  p    36   H  s           0.50937631
1eov         23   O  d    36   H  s           0.31300755
1eov         26   O  d    36   H  s           0.33846568
1eov         28   O  d    36   H  s           0.31300755
1eov         29   O  d    36   H  s           0.51259215
1eov         32   O  d    36   H  s           0.63261486
1eov         34   O  d    36   H  s           0.51259215
1eov         35   H  s    36   H  s           0.68486025
1eov         36   H  s    36   H  s           1.00000000
1eov         37   H  s    36   H  s           0.70740882
1eov          1   H  s    37   H  s           0.24865743
1eov          2   H  s    37   H  s           0.59635262
1eov          3   H  s    37   H  s           0.89924168
1eov          4   H  p    37   H  s           0.02501785
1eov          5   H  p    37   H  s           0.02501785
1eov          7   H  p    37   H  s           0.13703356
1eov          8   H  p    37   H  s           0.13703356
1eov         10   O  s    37   H  s           0.03300470
1eov         11   O  s    37   H  s           0.16693736
1eov         12   O  s    37   H  s           0.39183328
1eov         13   O  s    37   H  s           0.77939471
1eov         15   O  p    37   H  s           0.01469132
1eov         18   O  p    37   H  s           0.08027116
1eov         21   O  p    37   H  s           0.24482515
1eov         23   O  d    37   H  s           0.17451169
1eov         26   O  d    37   H  s           0.17541920
1eov         28   O  d    37   H  s           0.17451169
1eov         29   O  d    37   H  s           0.39146128
1eov         32   O  d    37   H  s           0.39829728
1eov         34   O  d    37   H  s           0.39146128
1eov         35   H  s    37   H  s           0.30373020
1eov         36   H  s    37   H  s           0.70740882
1eov         37   H  s    37   H  s           1.00000000
1eov          1   H  s    38   H  p          -0.14330547
1eov          1   H  s    39   H  p          -0.14330547
1eov          2   H  s    38   H  p          -0.12903644
1eov          2   H  s    39   H  p          -0.12903644
1eov          3   H  s    38   H  p          -0.02501785
1eov          3   H  s    39   H  p          -0.02501785
1eov          4   H  p    38   H  p          -0.11900846
1eov          5   H  p    38   H  p          -0.19356752
1eov          4   H  p    39   H  p          -0.19356752
1eov          5   H  p    39   H  p          -0.11900846
1eov          6   H  p    40   H  p           0.07455906
1eov          7   H  p    38   H  p           0.03148123
1eov          8   H  p    38   H  p          -0.16961786
1eov          7   H  p    39   H  p          -0.16961786
1eov          8   H  p    39   H  p           0.03148123
1eov          9   H  p    40   H  p           0.20109909
1eov         10   O  s    39   H  p          -0.09547379
1eov         11   O  s    39   H  p          -0.37693294
1eov         12   O  s    39   H  p          -0.38385125
1eov         13   O  s    39   H  p          -0.11223010
1eov         14   O  p    38   H  p           0.17141666
1eov         15   O  p    39   H  p          -0.37699173
1eov         16   O  p    40   H  p           0.17141666
1eov         17   O  p    38   H  p           0.36903545
1eov         18   O  p    39   H  p          -0.15727094
1eov         19   O  p    40   H  p           0.36903545
1eov         20   O  p    38   H  p           0.18868318
1eov         21   O  p    39   H  p           0.10425389
1eov         22   O  p    40   H  p           0.18868318
1eov         24   O  d    38   H  p           0.16784362
1eov         23   O  d    39   H  p          -0.27358279
1eov         26   O  d    39   H  p          -0.47802441
1eov         28   O  d    39   H  p          -0.27358279
1eov         27   O  d    40   H  p           0.16784362
1eov         30   O  d    38   H  p           0.31715865
1eov         29   O  d    39   H  p          -0.14483724
1eov         32   O  d    39   H  p          -0.02679454
1eov         34   O  d    39   H  p          -0.14483724
1eov         33   O  d    40   H  p           0.31715865
1eov         38   H  p    38   H  p           1.00000000
1eov         39   H  p    39   H  p           1.00000000
1eov         40   H  p    40   H  p           1.00000000
1eov         41   H  p    38   H  p           0.46743107
1eov         42   H  p    39   H  p           0.46743107
1eov         43   H  p    40   H  p           0.46743107
1eov          1   H  s    41   H  p          -0.36734402
1eov          1   H  s    42   H  p          -0.36734402
1eov          2   H  s    41   H  p          -0.41101715
1eov          2   H  s    42   H  p          -0.41101715
1eov          3   H  s    41   H  p          -0.13703356
1eov          3   H  s    42   H  p          -0.13703356
1eov          4   H  p    41   H  p           0.03148123
1eov          5   H  p    41   H  p          -0.16961786
1eov          4   H  p    42   H  p          -0.16961786
1eov          5   H  p    42   H  p           0.03148123
1eov          6   H  p    43   H  p           0.20109909
1eov          7   H  p    41   H  p           0.30007217
1eov          8   H  p    41   H  p          -0.30432722
1eov          7   H  p    42   H  p          -0.30432722
1eov          8   H  p    42   H  p           0.30007217
1eov          9   H  p    43   H  p           0.60439938
1eov         10   O  s    42   H  p          -0.09673289
1eov         11   O  s    42   H  p          -0.39719227
1eov         12   O  s    42   H  p          -0.61716063
1eov         13   O  s    42   H  p          -0.39957827
1eov         14   O  p    41   H  p           0.17767341
1eov         15   O  p    42   H  p           0.01851945
1eov         16   O  p    43   H  p           0.17767341
1eov         17   O  p    41   H  p           0.62478380
1eov         18   O  p    42   H  p           0.20870428
1eov         19   O  p    43   H  p           0.62478380
1eov         20   O  p    41   H  p           0.72339252
1eov         21   O  p    42   H  p           0.48506005
1eov         22   O  p    43   H  p           0.72339252
1eov         24   O  d    41   H  p           0.04806931
1eov         23   O  d    42   H  p          -0.40398673
1eov         26   O  d    42   H  p          -0.35110841
1eov         28   O  d    42   H  p          -0.40398673
1eov         27   O  d    43   H  p           0.04806931
1eov         30   O  d    41   H  p           0.21070487
1eov         29   O  d    42   H  p          -0.49612778
1eov         32   O  d    42   H  p          -0.22365356
1eov         34   O  d    42   H  p          -0.49612778
1eov         33   O  d    43   H  p           0.21070487
1eov         38   H  p    41   H  p           0.46743107
1eov         39   H  p    42   H  p           0.46743107
1eov         40   H  p    43   H  p           0.46743107
1eov         41   H  p    41   H  p           1.00000000
1eov         42   H  p    42   H  p           1.00000000
1eov         43   H  p    43   H  p           1.00000000
 ====================================
 End overlap 1-e integrals
 ====================================

 Forming initial guess at       0.0s


      Superposition of Atomic Density Guess
      -------------------------------------

 Sum of atomic energies:         -75.76548395

      Non-variational initial energy
      ------------------------------

 Total energy =     -75.865940
 1-e energy   =    -121.089190
 2-e energy   =      36.382229
 HOMO         =      -0.470706
 LUMO         =       0.007745


 Starting SCF solution at       0.2s



 ----------------------------------------------
         Quadratically convergent ROHF

 Convergence threshold     :          1.000E-04
 Maximum no. of iterations :           30
 Final Fock-matrix accuracy:          1.000E-07
 ----------------------------------------------


 Integral file          = ./h2o.aoints.0
 Record size in doubles =  65536        No. of integs per rec  =  43688
 Max. records in memory =     16        Max. records in file   =  29876
 No. of bits per label  =      8        No. of bits per value  =     64


 #quartets = 1.815D+04 #integrals = 1.696D+05 #direct =  0.0% #cached =100.0%


              iter       energy          gnorm     gmax       time
             ----- ------------------- --------- --------- --------
                 1      -75.9927362677  8.46D-01  2.52D-01      0.3
                 2      -76.0283992088  1.87D-01  7.31D-02      0.3
                 3      -76.0308237542  1.85D-02  7.33D-03      0.4
                 4      -76.0308597012  8.62D-05  2.62D-05      0.4


       Final RHF  results 
       ------------------ 

         Total SCF energy =    -76.030859701221
      One-electron energy =   -122.306230111354
      Two-electron energy =     37.434349604920
 Nuclear repulsion energy =      8.841020805213

        Time for solution =      0.2s


             Final eigenvalues
             -----------------

              1      
    1  -20.5892
    2   -1.3462
    3   -0.6677
    4   -0.6057
    5   -0.5100
    6    0.0332
    7    0.0590
    8    0.1692
    9    0.2002
   10    0.2195
   11    0.2371
   12    0.2713
   13    0.3496
   14    0.3664
   15    0.3914

                       ROHF Final Molecular Orbital Analysis
                       -------------------------------------

 Vector    2  Occ=2.000000D+00  E=-1.346208D+00
              MO Center=  8.7D-01,  1.3D-01, -1.7D-16, r^2= 5.0D-01
   Bfn.  Coefficient  Atom+Function         Bfn.  Coefficient  Atom+Function  
  ----- ------------  ---------------      ----- ------------  ---------------
    11      0.428286  2 O  s                 12      0.408314  2 O  s          
     1      0.199701  1 H  s                 35      0.199701  3 H  s          

 Vector    3  Occ=2.000000D+00  E=-6.676567D-01
              MO Center=  8.3D-01,  1.7D-01,  7.8D-17, r^2= 7.9D-01
   Bfn.  Coefficient  Atom+Function         Bfn.  Coefficient  Atom+Function  
  ----- ------------  ---------------      ----- ------------  ---------------
    14      0.357014  2 O  px                15      0.357014  2 O  py         
     1     -0.321400  1 H  s                 35      0.321400  3 H  s          
    17      0.173989  2 O  px                18      0.173989  2 O  py         

 Vector    4  Occ=2.000000D+00  E=-6.056832D-01
              MO Center=  1.0D+00,  3.2D-03,  1.5D-16, r^2= 7.6D-01
   Bfn.  Coefficient  Atom+Function         Bfn.  Coefficient  Atom+Function  
  ----- ------------  ---------------      ----- ------------  ---------------
    14      0.371703  2 O  px                15     -0.371703  2 O  py         
    12      0.348672  2 O  s                  1     -0.232835  1 H  s          
    35     -0.232835  3 H  s                 17      0.207040  2 O  px         
    18     -0.207040  2 O  py                11      0.165377  2 O  s          

 Vector    5  Occ=2.000000D+00  E=-5.100148D-01
              MO Center=  9.7D-01,  3.0D-02,  3.2D-16, r^2= 6.8D-01
   Bfn.  Coefficient  Atom+Function         Bfn.  Coefficient  Atom+Function  
  ----- ------------  ---------------      ----- ------------  ---------------
    16      0.630923  2 O  pz                19      0.450783  2 O  pz         

 Vector    6  Occ=0.000000D+00  E= 3.322450D-02
              MO Center=  2.4D-01,  7.6D-01, -3.8D-16, r^2= 1.1D+01
   Bfn.  Coefficient  Atom+Function         Bfn.  Coefficient  Atom+Function  
  ----- ------------  ---------------      ----- ------------  ---------------
    13      1.405672  2 O  s                  3     -0.809163  1 H  s          
    37     -0.809163  3 H  s                  2     -0.403008  1 H  s          
    36     -0.403008  3 H  s                 12      0.203767  2 O  s          
    20     -0.160940  2 O  px                21      0.160940  2 O  py         

 Vector    7  Occ=0.000000D+00  E= 5.900569D-02
              MO Center=  2.3D-01,  7.7D-01, -4.1D-17, r^2= 1.5D+01
   Bfn.  Coefficient  Atom+Function         Bfn.  Coefficient  Atom+Function  
  ----- ------------  ---------------      ----- ------------  ---------------
     3      3.087792  1 H  s                 37     -3.087792  3 H  s          
    20      0.520611  2 O  px                21      0.520611  2 O  py         
     2      0.500641  1 H  s                 36     -0.500641  3 H  s          
     7      0.165988  1 H  px                42      0.165988  3 H  py         

 Vector    8  Occ=0.000000D+00  E= 1.691874D-01
              MO Center=  1.1D+00, -5.3D-02, -5.6D-18, r^2= 8.6D+00
   Bfn.  Coefficient  Atom+Function         Bfn.  Coefficient  Atom+Function  
  ----- ------------  ---------------      ----- ------------  ---------------
    13      4.283244  2 O  s                  2     -1.993511  1 H  s          
    36     -1.993511  3 H  s                 20     -1.394776  2 O  px         
    21      1.394776  2 O  py                 3     -0.669122  1 H  s          
    37     -0.669122  3 H  s                  7     -0.568819  1 H  px         
    42      0.568819  3 H  py                12      0.415631  2 O  s          

 Vector    9  Occ=0.000000D+00  E= 2.002341D-01
              MO Center=  1.2D+00, -1.8D-01, -9.6D-16, r^2= 6.3D+00
   Bfn.  Coefficient  Atom+Function         Bfn.  Coefficient  Atom+Function  
  ----- ------------  ---------------      ----- ------------  ---------------
    22      1.383838  2 O  pz                19     -0.281757  2 O  pz         
     9     -0.227841  1 H  pz                43     -0.227841  3 H  pz         
    16     -0.176800  2 O  pz         

 Vector   10  Occ=0.000000D+00  E= 2.194674D-01
              MO Center=  9.2D-01,  8.4D-02,  6.5D-16, r^2= 7.3D+00
   Bfn.  Coefficient  Atom+Function         Bfn.  Coefficient  Atom+Function  
  ----- ------------  ---------------      ----- ------------  ---------------
    13      2.121101  2 O  s                  3     -0.609537  1 H  s          
    37     -0.609537  3 H  s                  7     -0.498515  1 H  px         
    42      0.498515  3 H  py                20      0.466324  2 O  px         
    21     -0.466324  2 O  py                11     -0.218291  2 O  s          

 Vector   11  Occ=0.000000D+00  E= 2.371451D-01
              MO Center=  1.1D+00, -1.3D-01,  1.7D-16, r^2= 9.6D+00
   Bfn.  Coefficient  Atom+Function         Bfn.  Coefficient  Atom+Function  
  ----- ------------  ---------------      ----- ------------  ---------------
     2      2.721017  1 H  s                 36     -2.721017  3 H  s          
     3      2.654615  1 H  s                 37     -2.654615  3 H  s          
    20      2.061543  2 O  px                21      2.061543  2 O  py         
     7      0.844258  1 H  px                42      0.844258  3 H  py         
    17      0.150882  2 O  px                18      0.150882  2 O  py         

 Vector   12  Occ=0.000000D+00  E= 2.713495D-01
              MO Center=  4.8D-01,  5.2D-01,  1.8D-16, r^2= 4.2D+00
   Bfn.  Coefficient  Atom+Function         Bfn.  Coefficient  Atom+Function  
  ----- ------------  ---------------      ----- ------------  ---------------
     2      0.761230  1 H  s                 36     -0.761230  3 H  s          
     3     -0.633219  1 H  s                  7     -0.633534  1 H  px         
    37      0.633219  3 H  s                 42     -0.633534  3 H  py         
    20      0.396688  2 O  px                21      0.396688  2 O  py         
    17      0.195782  2 O  px                18      0.195782  2 O  py         

 Vector   13  Occ=0.000000D+00  E= 3.495754D-01
              MO Center=  6.2D-01,  3.8D-01,  3.4D-16, r^2= 4.3D+00
   Bfn.  Coefficient  Atom+Function         Bfn.  Coefficient  Atom+Function  
  ----- ------------  ---------------      ----- ------------  ---------------
    13      3.522432  2 O  s                  2     -1.955717  1 H  s          
    36     -1.955717  3 H  s                  8      0.758170  1 H  py         
    41     -0.758170  3 H  px                20     -0.385403  2 O  px         
    21      0.385403  2 O  py                30      0.196554  2 O  dxy        
     3     -0.181636  1 H  s                 37     -0.181636  3 H  s          

 Vector   14  Occ=0.000000D+00  E= 3.663834D-01
              MO Center=  7.7D-01,  2.3D-01,  5.3D-16, r^2= 4.9D+00
   Bfn.  Coefficient  Atom+Function         Bfn.  Coefficient  Atom+Function  
  ----- ------------  ---------------      ----- ------------  ---------------
    13      4.472233  2 O  s                  2     -2.083147  1 H  s          
    36     -2.083147  3 H  s                 20     -1.291772  2 O  px         
    21      1.291772  2 O  py                 8     -0.476400  1 H  py         
    41      0.476400  3 H  px                17     -0.428671  2 O  px         
    18      0.428671  2 O  py                 7      0.355726  1 H  px         

 Vector   15  Occ=0.000000D+00  E= 3.914324D-01
              MO Center=  4.6D-01,  5.4D-01, -3.3D-16, r^2= 3.9D+00
   Bfn.  Coefficient  Atom+Function         Bfn.  Coefficient  Atom+Function  
  ----- ------------  ---------------      ----- ------------  ---------------
     9      1.190591  1 H  pz                43     -1.190591  3 H  pz         

 Vector   16  Occ=0.000000D+00  E= 4.072636D-01
              MO Center=  5.2D-01,  4.8D-01,  4.6D-17, r^2= 4.0D+00
   Bfn.  Coefficient  Atom+Function         Bfn.  Coefficient  Atom+Function  
  ----- ------------  ---------------      ----- ------------  ---------------
     9      1.089880  1 H  pz                43      1.089880  3 H  pz         
    22     -1.062902  2 O  pz                19     -0.571523  2 O  pz         

 Vector   17  Occ=0.000000D+00  E= 5.470002D-01
              MO Center=  5.2D-01,  4.8D-01,  2.4D-16, r^2= 5.0D+00
   Bfn.  Coefficient  Atom+Function         Bfn.  Coefficient  Atom+Function  
  ----- ------------  ---------------      ----- ------------  ---------------
     2      2.684256  1 H  s                  8      2.675345  1 H  py         
    36     -2.684256  3 H  s                 41      2.675345  3 H  px         
     7      1.125618  1 H  px                20     -1.124822  2 O  px         
    21     -1.124822  2 O  py                42      1.125618  3 H  py         
     3     -0.667924  1 H  s                 37      0.667924  3 H  s          


 center of mass
 --------------
 x =   1.78398174 y =   0.10574425 z =   0.00000000

 moments of inertia (a.u.)
 ------------------
           3.397616588225          -0.201391301930           0.000000000000
          -0.201391301930           3.397616588225           0.000000000000
           0.000000000000           0.000000000000           6.795233176450

  Mulliken analysis of the total density
  --------------------------------------

    Atom       Charge   Shell Charges
 -----------   ------   -------------------------------------------------------
    1 H    1     0.91   0.70  0.08 -0.00  0.08  0.05
    2 O    8     8.18   2.01  0.82  0.89  0.03  2.77  1.66  0.11  0.01 -0.10
    3 H    1     0.91   0.70  0.08 -0.00  0.08  0.05

       Multipole analysis of the density wrt the origin
       ------------------------------------------------

     L   x y z        total         open         nuclear
     -   - - -        -----         ----         -------
     0   0 0 0     -0.000000      0.000000     10.000000

     1   1 0 0     -0.627350      0.000000     17.007534
     1   0 1 0      0.627350      0.000000      1.889726
     1   0 0 1     -0.000000      0.000000      0.000000

     2   2 0 0     -6.104611      0.000000     32.139579
     2   1 1 0      1.298461      0.000000      3.571064
     2   1 0 1     -0.000000      0.000000      0.000000
     2   0 2 0     -3.733572      0.000000      3.571064
     2   0 1 1     -0.000000      0.000000      0.000000
     2   0 0 2     -5.698268      0.000000      0.000000


 Parallel integral file used       4 records with       0 large values


 Task  times  cpu:        0.4s     wall:        0.4s
 Summary of allocated global arrays
-----------------------------------
  No active global arrays



                         GA Statistics for process    0
                         ------------------------------

       create   destroy   get      put      acc     scatter   gather  read&inc
calls:  205      205     2616     1630     1755        0        0       51     
number of processes/call 1.00e+00 1.00e+00 1.00e+00 0.00e+00 0.00e+00
bytes total:             3.98e+06 2.55e+06 5.41e+05 0.00e+00 0.00e+00 2.04e+02
bytes remote:            0.00e+00 0.00e+00 0.00e+00 0.00e+00 0.00e+00 0.00e+00
Max memory consumed for GA by this process: 192296 bytes
MA_summarize_allocated_blocks: starting scan ...
MA_summarize_allocated_blocks: scan completed: 0 heap blocks, 0 stack blocks
MA usage statistics:

	allocation statistics:
					      heap	     stack
					      ----	     -----
	current number of blocks	         0	         0
	maximum number of blocks	        17	        14
	current total bytes		         0	         0
	maximum total bytes		   8400844	  22509724
	maximum total K-bytes		      8401	     22510
	maximum total M-bytes		         9	        23


                                NWChem Input Module
                                -------------------





                                     CITATION
                                     --------
                Please cite the following reference when publishing
                           results obtained with NWChem:

                 M. Valiev, E.J. Bylaska, N. Govind, K. Kowalski,
              T.P. Straatsma, H.J.J. van Dam, D. Wang, J. Nieplocha,
                        E. Apra, T.L. Windus, W.A. de Jong
                 "NWChem: a comprehensive and scalable open-source
                  solution for large scale molecular simulations"
                      Comput. Phys. Commun. 181, 1477 (2010)
                           doi:10.1016/j.cpc.2010.04.018

                                      AUTHORS
                                      -------
          E. Apra, E. J. Bylaska, W. A. de Jong, N. Govind, K. Kowalski,
       T. P. Straatsma, M. Valiev, H. J. J. van Dam, D. Wang, T. L. Windus,
        J. Hammond, J. Autschbach, K. Bhaskaran-Nair, J. Brabec, K. Lopata,
       S. A. Fischer, S. Krishnamoorthy, W. Ma, M. Klemm, O. Villa, Y. Chen,
    V. Anisimov, F. Aquino, S. Hirata, M. T. Hackler, T. Risthaus, M. Malagoli,
       A. Marenich, A. Otero-de-la-Roza, J. Mullin, P. Nichols, R. Peverati,
     J. Pittner, Y. Zhao, P.-D. Fan, A. Fonari, M. Williamson, R. J. Harrison,
       J. R. Rehr, M. Dupuis, D. Silverstein, D. M. A. Smith, J. Nieplocha,
        V. Tipparaju, M. Krishnan, B. E. Van Kuiken, A. Vazquez-Mayagoitia,
        L. Jensen, M. Swart, Q. Wu, T. Van Voorhis, A. A. Auer, M. Nooijen,
      L. D. Crosby, E. Brown, G. Cisneros, G. I. Fann, H. Fruchtl, J. Garza,
        K. Hirao, R. A. Kendall, J. A. Nichols, K. Tsemekhman, K. Wolinski,
     J. Anchell, D. E. Bernholdt, P. Borowski, T. Clark, D. Clerc, H. Dachsel,
   M. J. O. Deegan, K. Dyall, D. Elwood, E. Glendening, M. Gutowski, A. C. Hess,
         J. Jaffe, B. G. Johnson, J. Ju, R. Kobayashi, R. Kutteh, Z. Lin,
   R. Littlefield, X. Long, B. Meng, T. Nakajima, S. Niu, L. Pollack, M. Rosing,
   K. Glaesemann, G. Sandrone, M. Stave, H. Taylor, G. Thomas, J. H. van Lenthe,
                               A. T. Wong, Z. Zhang.

 Total times  cpu:        0.4s     wall:        0.4s
