 argument  1 = l_0.nw
                                         
                                         


              Northwest Computational Chemistry Package (NWChem) 6.6
              ------------------------------------------------------


                    Environmental Molecular Sciences Laboratory
                       Pacific Northwest National Laboratory
                                Richland, WA 99352

                              Copyright (c) 1994-2015
                       Pacific Northwest National Laboratory
                            Battelle Memorial Institute

             NWChem is an open-source computational chemistry package
                        distributed under the terms of the
                      Educational Community License (ECL) 2.0
             A copy of the license is included with this distribution
                              in the LICENSE.TXT file

                                  ACKNOWLEDGMENT
                                  --------------

            This software and its documentation were developed at the
            EMSL at Pacific Northwest National Laboratory, a multiprogram
            national laboratory, operated for the U.S. Department of Energy
            by Battelle under Contract Number DE-AC05-76RL01830. Support
            for this work was provided by the Department of Energy Office
            of Biological and Environmental Research, Office of Basic
            Energy Sciences, and the Office of Advanced Scientific Computing.


           Job information
           ---------------

    hostname        = pc-avl09
    program         = nwchem
    date            = Thu Nov 19 16:32:10 2015

    compiled        = Don_Nov_12_16:48:58_2015
    source          = /home/diana/Desktop/bin/nwchem-6.6
    nwchem branch   = 6.6
    nwchem revision = 27746
    ga revision     = 10594
    input           = l_0.nw
    prefix          = h2.
    data base       = ./h2.db
    status          = startup
    nproc           =        1
    time left       =     -1s



           Memory information
           ------------------

    heap     =   13107200 doubles =    100.0 Mbytes
    stack    =   13107197 doubles =    100.0 Mbytes
    global   =   26214400 doubles =    200.0 Mbytes (distinct from heap & stack)
    total    =   52428797 doubles =    400.0 Mbytes
    verify   = yes
    hardfail = no 


           Directory information
           ---------------------

  0 permanent = .
  0 scratch   = .




                                NWChem Input Module
                                -------------------


                                H2 in l_0 basis set
                                -------------------

 Scaling coordinates for geometry "geometry" by  1.889725989
 (inverse scale =  0.529177249)

 C1  symmetry detected

          ------
          auto-z
          ------


                             Geometry "geometry" -> ""
                             -------------------------

 Output coordinates in angstroms (scale by  1.889725989 to convert to a.u.)

  No.       Tag          Charge          X              Y              Z
 ---- ---------------- ---------- -------------- -------------- --------------
    1 O2V                  8.0000    -0.07632856    -0.30394548    -0.94821239
    2 H2V                  1.0000    -0.14558745    -0.66793027     1.01217576
    3 V2O                  0.0000     0.91950427    -0.69940130     0.08224192
    4 V2H                  0.0000    -1.03760939    -0.31287712     0.08849928
    5 O                    8.0000     0.32506733     2.30681575    -0.33384335
    6 H                    1.0000     0.23110326     1.78215773     1.58874240
    7 C                    6.0000    -0.02746693     0.05946266     0.21618939
    8 C                    6.0000     0.19013427     1.47477363     0.54938199

      Atomic Mass 
      ----------- 

      O2V               15.994910
      H2V                1.007825
      V2O               50.944000
      V2H               50.944000
      O                 15.994910
      H                  1.007825
      C                 12.000000


 Effective nuclear repulsion energy (a.u.)     104.4997522701

            Nuclear Dipole moment (a.u.) 
            ----------------------------
        X                 Y               Z
 ---------------- ---------------- ----------------
     5.7663665074    49.7803097883    -5.7865289538



                                Z-matrix (autoz)
                                -------- 

 Units are Angstrom for bonds and degrees for angles

      Type          Name      I     J     K     L     M      Value
      ----------- --------  ----- ----- ----- ----- ----- ----------
    1 Stretch                  1     3                       1.48657
    2 Stretch                  1     4                       1.41383
    3 Stretch                  1     7                       1.22077
    4 Stretch                  2     3                       1.41428
    5 Stretch                  2     4                       1.33227
    6 Stretch                  2     7                       1.08473
    7 Stretch                  3     4                       1.99493
    8 Stretch                  3     7                       1.22089
    9 Stretch                  3     8                       2.34035
   10 Stretch                  4     7                       1.08413
   11 Stretch                  4     8                       2.21708
   12 Stretch                  5     8                       1.22090
   13 Stretch                  6     8                       1.08464
   14 Stretch                  7     8                       1.47019
   15 Bend                     1     3     2                86.86869
   16 Bend                     1     3     4                45.04474
   17 Bend                     1     3     7                52.49093
   18 Bend                     1     3     8                71.48579
   19 Bend                     1     4     2                93.14298
   20 Bend                     1     4     3                48.07929
   21 Bend                     1     4     7                56.67972
   22 Bend                     1     4     8                76.75142
   23 Bend                     1     7     2               119.73205
   24 Bend                     1     7     3                75.01097
   25 Bend                     1     7     4                75.41142
   26 Bend                     1     7     8               120.57494
   27 Bend                     2     3     4                41.82395
   28 Bend                     2     3     7                47.92486
   29 Bend                     2     3     8                67.25562
   30 Bend                     2     4     3                45.06370
   31 Bend                     2     4     7                52.12157
   32 Bend                     2     4     8                72.54152
   33 Bend                     2     7     3                75.41387
   34 Bend                     2     7     4                75.79811
   35 Bend                     2     7     8               119.69301
   36 Bend                     3     1     4                86.87597
   37 Bend                     3     1     7                52.49810
   38 Bend                     3     2     4                93.11235
   39 Bend                     3     2     7                56.66126
   40 Bend                     3     4     7                32.09346
   41 Bend                     3     4     8                67.26984
   42 Bend                     3     7     4               119.75626
   43 Bend                     3     7     8               120.55904
   44 Bend                     3     8     4                51.83211
   45 Bend                     3     8     5               117.01802
   46 Bend                     3     8     6               116.28109
   47 Bend                     3     8     7                26.69318
   48 Bend                     4     1     7                47.90886
   49 Bend                     4     2     7                52.08033
   50 Bend                     4     3     7                28.15028
   51 Bend                     4     3     8                60.89806
   52 Bend                     4     7     8               119.68470
   53 Bend                     4     8     5               117.40758
   54 Bend                     4     8     6               116.65542
   55 Bend                     4     8     7                25.13892
   56 Bend                     5     8     6               119.73014
   57 Bend                     5     8     7               120.56178
   58 Bend                     6     8     7               119.70808
   59 Bend                     7     3     8                32.74778
   60 Bend                     7     4     8                35.17638
   61 Torsion                  1     3     2     4          -0.02898
   62 Torsion                  1     3     2     7         -39.45297
   63 Torsion                  1     3     4     2         179.95911
   64 Torsion                  1     3     4     7         -92.41899
   65 Torsion                  1     3     4     8         -92.41956
   66 Torsion                  1     3     7     2         126.88310
   67 Torsion                  1     3     7     4          63.03678
   68 Torsion                  1     3     7     8        -116.96415
   69 Torsion                  1     3     8     4          48.21215
   70 Torsion                  1     3     8     5         -56.64525
   71 Torsion                  1     3     8     6         152.58635
   72 Torsion                  1     3     8     7          48.21165
   73 Torsion                  1     4     2     3           0.03047
   74 Torsion                  1     4     2     7          42.29370
   75 Torsion                  1     4     3     2        -179.95911
   76 Torsion                  1     4     3     7          92.41899
   77 Torsion                  1     4     3     8          92.41956
   78 Torsion                  1     4     7     2        -126.47627
   79 Torsion                  1     4     7     3         -62.82989
   80 Torsion                  1     4     7     8         117.17104
   81 Torsion                  1     4     8     3         -49.79445
   82 Torsion                  1     4     8     5          54.28668
   83 Torsion                  1     4     8     6        -153.42117
   84 Torsion                  1     4     8     7         -49.79392
   85 Torsion                  1     7     2     3          62.84597
   86 Torsion                  1     7     2     4         -63.65693
   87 Torsion                  1     7     3     2        -126.88310
   88 Torsion                  1     7     3     4         -63.03678
   89 Torsion                  1     7     3     8         116.96415
   90 Torsion                  1     7     4     2         126.47627
   91 Torsion                  1     7     4     3          62.82989
   92 Torsion                  1     7     4     8        -117.17104
   93 Torsion                  1     7     8     3         -89.99879
   94 Torsion                  1     7     8     4          90.00215
   95 Torsion                  1     7     8     5           0.00027
   96 Torsion                  1     7     8     6         179.99964
   97 Torsion                  2     3     1     4           0.02731
   98 Torsion                  2     3     1     7          36.48402
   99 Torsion                  2     3     4     7          87.62190
  100 Torsion                  2     3     4     8          87.62133
  101 Torsion                  2     3     7     4         -63.84631
  102 Torsion                  2     3     7     8         116.15275
  103 Torsion                  2     3     8     4         -46.25694
  104 Torsion                  2     3     8     5        -151.11434
  105 Torsion                  2     3     8     6          58.11726
  106 Torsion                  2     3     8     7         -46.25745
  107 Torsion                  2     4     1     3          -0.02899
  108 Torsion                  2     4     1     7         -39.46799
  109 Torsion                  2     4     3     7         -87.62190
  110 Torsion                  2     4     3     8         -87.62133
  111 Torsion                  2     4     7     3          63.64638
  112 Torsion                  2     4     7     8        -116.35269
  113 Torsion                  2     4     8     3          47.85398
  114 Torsion                  2     4     8     5         151.93511
  115 Torsion                  2     4     8     6         -55.77274
  116 Torsion                  2     4     8     7          47.85451
  117 Torsion                  2     7     1     3         -63.05427
  118 Torsion                  2     7     1     4          63.85826
  119 Torsion                  2     7     3     4          63.84631
  120 Torsion                  2     7     3     8        -116.15275
  121 Torsion                  2     7     4     3         -63.64638
  122 Torsion                  2     7     4     8         116.35269
  123 Torsion                  2     7     8     3          90.00116
  124 Torsion                  2     7     8     4         -89.99791
  125 Torsion                  2     7     8     5        -179.99978
  126 Torsion                  2     7     8     6          -0.00041
  127 Torsion                  3     1     4     7          39.43900
  128 Torsion                  3     1     4     8          71.21067
  129 Torsion                  3     1     7     4        -126.91252
  130 Torsion                  3     1     7     8         116.94568
  131 Torsion                  3     2     4     7         -42.26323
  132 Torsion                  3     2     4     8         -75.02555
  133 Torsion                  3     2     7     4         126.50290
  134 Torsion                  3     2     7     8        -117.15397
  135 Torsion                  3     4     1     7         -39.43900
  136 Torsion                  3     4     2     7          42.26323
  137 Torsion                  3     4     7     8        -179.99907
  138 Torsion                  3     4     8     5         104.08113
  139 Torsion                  3     4     8     6        -103.62672
  140 Torsion                  3     4     8     7           0.00053
  141 Torsion                  3     7     1     4         126.91252
  142 Torsion                  3     7     2     4        -126.50290
  143 Torsion                  3     7     4     8         179.99907
  144 Torsion                  3     7     8     4        -179.99907
  145 Torsion                  3     7     8     5          89.99906
  146 Torsion                  3     7     8     6         -90.00157
  147 Torsion                  3     8     4     7          -0.00053
  148 Torsion                  3     8     7     4         179.99907
  149 Torsion                  4     1     3     7         -36.45671
  150 Torsion                  4     1     3     8         -67.01743
  151 Torsion                  4     1     7     8        -116.14180
  152 Torsion                  4     2     3     7          39.42399
  153 Torsion                  4     2     3     8          71.19346
  154 Torsion                  4     2     7     8         116.34312
  155 Torsion                  4     3     1     7          36.45671
  156 Torsion                  4     3     2     7         -39.42399
  157 Torsion                  4     3     7     8         179.99907
  158 Torsion                  4     3     8     5        -104.85740
  159 Torsion                  4     3     8     6         104.37420
  160 Torsion                  4     3     8     7          -0.00050
  161 Torsion                  4     7     3     8        -179.99907
  162 Torsion                  4     7     8     5         -90.00187
  163 Torsion                  4     7     8     6          89.99749
  164 Torsion                  4     8     3     7           0.00050
  165 Torsion                  5     8     3     7        -104.85689
  166 Torsion                  5     8     4     7         104.08059
  167 Torsion                  6     8     3     7         104.37471
  168 Torsion                  6     8     4     7        -103.62725
  169 Torsion                  7     1     3     8         -30.56072
  170 Torsion                  7     1     4     8          31.77167
  171 Torsion                  7     2     3     8          31.76947
  172 Torsion                  7     2     4     8         -32.76232
  173 Torsion                  7     3     4     8          -0.00058
  174 Torsion                  7     4     3     8           0.00058


            XYZ format geometry
            -------------------
     8
 geometry
 O2V                  -0.07632856    -0.30394548    -0.94821239
 H2V                  -0.14558745    -0.66793027     1.01217576
 V2O                   0.91950427    -0.69940130     0.08224192
 V2H                  -1.03760939    -0.31287712     0.08849928
 O                     0.32506733     2.30681575    -0.33384335
 H                     0.23110326     1.78215773     1.58874240
 C                    -0.02746693     0.05946266     0.21618939
 C                     0.19013427     1.47477363     0.54938199

 ==============================================================================
                                internuclear distances
 ------------------------------------------------------------------------------
       center one      |      center two      | atomic units |  angstroms
 ------------------------------------------------------------------------------
    3 V2O              |   1 O2V              |     2.80922  |     1.48657
    3 V2O              |   2 H2V              |     2.67260  |     1.41428
    4 V2H              |   1 O2V              |     2.67175  |     1.41383
    4 V2H              |   2 H2V              |     2.51763  |     1.33227
    4 V2H              |   3 V2O              |     3.76987  |     1.99493
    7 C                |   1 O2V              |     2.30692  |     1.22077
    7 C                |   2 H2V              |     2.04985  |     1.08473
    7 C                |   3 V2O              |     2.30715  |     1.22089
    7 C                |   4 V2H              |     2.04870  |     1.08413
    8 C                |   3 V2O              |     4.42262  |     2.34035
    8 C                |   4 V2H              |     4.18968  |     2.21708
    8 C                |   5 O                |     2.30716  |     1.22090
    8 C                |   6 H                |     2.04966  |     1.08464
    8 C                |   7 C                |     2.77827  |     1.47019
 ------------------------------------------------------------------------------
                         number of included internuclear distances:         14
 ==============================================================================



 ==============================================================================
                                 internuclear angles
 ------------------------------------------------------------------------------
        center 1       |       center 2       |       center 3       |  degrees
 ------------------------------------------------------------------------------
    3 V2O              |   1 O2V              |   4 V2H              |    86.88
    1 O2V              |   7 C                |   3 V2O              |    75.01
    1 O2V              |   7 C                |   4 V2H              |    75.41
    3 V2O              |   2 H2V              |   4 V2H              |    93.11
    2 H2V              |   7 C                |   3 V2O              |    75.41
    2 H2V              |   7 C                |   4 V2H              |    75.80
    1 O2V              |   3 V2O              |   2 H2V              |    86.87
    3 V2O              |   1 O2V              |   4 V2H              |    86.88
    3 V2O              |   7 C                |   1 O2V              |    75.01
    1 O2V              |   3 V2O              |   8 C                |    71.49
    3 V2O              |   2 H2V              |   4 V2H              |    93.11
    3 V2O              |   7 C                |   2 H2V              |    75.41
    2 H2V              |   3 V2O              |   8 C                |    67.26
    3 V2O              |   7 C                |   4 V2H              |   119.76
    3 V2O              |   4 V2H              |   8 C                |    67.27
    3 V2O              |   7 C                |   8 C                |   120.56
    1 O2V              |   4 V2H              |   2 H2V              |    93.14
    4 V2H              |   1 O2V              |   3 V2O              |    86.88
    4 V2H              |   7 C                |   1 O2V              |    75.41
    1 O2V              |   4 V2H              |   8 C                |    76.75
    4 V2H              |   2 H2V              |   3 V2O              |    93.11
    4 V2H              |   7 C                |   2 H2V              |    75.80
    2 H2V              |   4 V2H              |   8 C                |    72.54
    4 V2H              |   7 C                |   3 V2O              |   119.76
    3 V2O              |   4 V2H              |   8 C                |    67.27
    4 V2H              |   7 C                |   8 C                |   119.68
    1 O2V              |   7 C                |   2 H2V              |   119.73
    1 O2V              |   7 C                |   3 V2O              |    75.01
    1 O2V              |   7 C                |   4 V2H              |    75.41
    1 O2V              |   7 C                |   8 C                |   120.57
    2 H2V              |   7 C                |   3 V2O              |    75.41
    2 H2V              |   7 C                |   4 V2H              |    75.80
    2 H2V              |   7 C                |   8 C                |   119.69
    3 V2O              |   7 C                |   4 V2H              |   119.76
    3 V2O              |   7 C                |   8 C                |   120.56
    4 V2H              |   7 C                |   8 C                |   119.68
    8 C                |   4 V2H              |   3 V2O              |    67.27
    3 V2O              |   8 C                |   5 O                |   117.02
    3 V2O              |   8 C                |   6 H                |   116.28
    8 C                |   7 C                |   3 V2O              |   120.56
    4 V2H              |   8 C                |   5 O                |   117.41
    4 V2H              |   8 C                |   6 H                |   116.66
    8 C                |   7 C                |   4 V2H              |   119.68
    5 O                |   8 C                |   6 H                |   119.73
    5 O                |   8 C                |   7 C                |   120.56
    6 H                |   8 C                |   7 C                |   119.71
 ------------------------------------------------------------------------------
                            number of included internuclear angles:         46
 ==============================================================================



                      Basis "ao basis" -> "" (cartesian)
                      -----
  O2V (Oxygen)
  ------------
            Exponent  Coefficients 
       -------------- ---------------------------------------------------------
  1 S  1.30709320E+02  0.154329
  1 S  2.38088610E+01  0.535328
  1 S  6.44360830E+00  0.444635

  2 S  5.03315130E+00 -0.099967
  2 S  1.16959610E+00  0.399513
  2 S  3.80389000E-01  0.700115

  3 P  5.03315130E+00  0.155916
  3 P  1.16959610E+00  0.607684
  3 P  3.80389000E-01  0.391957

  H2V (Hydrogen)
  --------------
            Exponent  Coefficients 
       -------------- ---------------------------------------------------------
  1 S  3.42525091E+00  0.154329
  1 S  6.23913730E-01  0.535328
  1 S  1.68855400E-01  0.444635

  V2O (Vanadium)
  --------------
            Exponent  Coefficients 
       -------------- ---------------------------------------------------------
  1 S  1.30709320E+02  0.154329
  1 S  2.38088610E+01  0.535328
  1 S  6.44360830E+00  0.444635

  2 S  5.03315130E+00 -0.099967
  2 S  1.16959610E+00  0.399513
  2 S  3.80389000E-01  0.700115

  3 P  5.03315130E+00  0.155916
  3 P  1.16959610E+00  0.607684
  3 P  3.80389000E-01  0.391957

  V2H (Vanadium)
  --------------
            Exponent  Coefficients 
       -------------- ---------------------------------------------------------
  1 S  3.42525091E+00  0.154329
  1 S  6.23913730E-01  0.535328
  1 S  1.68855400E-01  0.444635

  O (Oxygen)
  ----------
            Exponent  Coefficients 
       -------------- ---------------------------------------------------------
  1 S  1.30709320E+02  0.154329
  1 S  2.38088610E+01  0.535328
  1 S  6.44360830E+00  0.444635

  2 S  5.03315130E+00 -0.099967
  2 S  1.16959610E+00  0.399513
  2 S  3.80389000E-01  0.700115

  3 P  5.03315130E+00  0.155916
  3 P  1.16959610E+00  0.607684
  3 P  3.80389000E-01  0.391957

  H (Hydrogen)
  ------------
            Exponent  Coefficients 
       -------------- ---------------------------------------------------------
  1 S  3.42525091E+00  0.154329
  1 S  6.23913730E-01  0.535328
  1 S  1.68855400E-01  0.444635

  C (Carbon)
  ----------
            Exponent  Coefficients 
       -------------- ---------------------------------------------------------
  1 S  7.16168370E+01  0.154329
  1 S  1.30450960E+01  0.535328
  1 S  3.53051220E+00  0.444635

  2 S  2.94124940E+00 -0.099967
  2 S  6.83483100E-01  0.399513
  2 S  2.22289900E-01  0.700115

  3 P  2.94124940E+00  0.155916
  3 P  6.83483100E-01  0.607684
  3 P  2.22289900E-01  0.391957



 Summary of "ao basis" -> "" (cartesian)
 ------------------------------------------------------------------------------
       Tag                 Description            Shells   Functions and Types
 ---------------- ------------------------------  ------  ---------------------
 O2V                         sto-3g                  3        5   2s1p
 H2V                         sto-3g                  1        1   1s
 V2O                         sto-3g                  3        5   2s1p
 V2H                         sto-3g                  1        1   1s
 O                           sto-3g                  3        5   2s1p
 H                           sto-3g                  1        1   1s
 C                           sto-3g                  3        5   2s1p


  pbe96 is a nonlocal functional; adding pw91lda local functional. 

                                 NWChem DFT Module
                                 -----------------


                                H2 in l_0 basis set




 Summary of "ao basis" -> "ao basis" (cartesian)
 ------------------------------------------------------------------------------
       Tag                 Description            Shells   Functions and Types
 ---------------- ------------------------------  ------  ---------------------
 O2V                         sto-3g                  3        5   2s1p
 H2V                         sto-3g                  1        1   1s
 V2O                         sto-3g                  3        5   2s1p
 V2H                         sto-3g                  1        1   1s
 O                           sto-3g                  3        5   2s1p
 H                           sto-3g                  1        1   1s
 C                           sto-3g                  3        5   2s1p


  Caching 1-el integrals 

            General Information
            -------------------
          SCF calculation type: DFT
          Wavefunction type:  closed shell.
          No. of atoms     :     8
          No. of electrons :    30
           Alpha electrons :    15
            Beta electrons :    15
          Charge           :     0
          Spin multiplicity:     1
          Use of symmetry is: off; symmetry adaption is: off
          Maximum number of iterations:  30
          AO basis - number of functions:    28
                     number of shells:    18
          Convergence on energy requested: 1.00D-06
          Convergence on density requested: 1.00D-05
          Convergence on gradient requested: 5.00D-04

              XC Information
              --------------
          PerdewBurkeErnzerhof Exchange Functional  1.000          
            Perdew 1991 LDA Correlation Functional  1.000 local    
           PerdewBurkeErnz. Correlation Functional  1.000 non-local

             Grid Information
             ----------------
          Grid used for XC integration:  medium    
          Radial quadrature: Mura-Knowles        
          Angular quadrature: Lebedev. 
          Tag              B.-S. Rad. Rad. Pts. Rad. Cut. Ang. Pts.
          ---              ---------- --------- --------- ---------
          O2V                 0.60       49           8.0       434
          H2V                 0.35       45           8.0       434
          V2O                 0.60       49           8.0       434
          V2H                 0.35       45           8.0       434
          O                   0.60       49           8.0       434
          H                   0.35       45           8.0       434
          C                   0.70       49           7.0       434
          Grid pruning is: on 
          Number of quadrature shells:   380
          Spatial weights used:  Erf1

          Convergence Information
          -----------------------
          Convergence aids based upon iterative change in 
          total energy or number of iterations. 
          Levelshifting, if invoked, occurs when the 
          HOMO/LUMO gap drops below (HL_TOL): 1.00D-02
          DIIS, if invoked, will attempt to extrapolate 
          using up to (NFOCK): 10 stored Fock matrices.

                    Damping( 0%)  Levelshifting(0.5)       DIIS
                  --------------- ------------------- ---------------
          dE  on:    start            ASAP                start   
          dE off:    2 iters         30 iters            30 iters 


      Screening Tolerance Information
      -------------------------------
          Density screening/tol_rho: 1.00D-10
          AO Gaussian exp screening on grid/accAOfunc:  14
          CD Gaussian exp screening on grid/accCDfunc:  20
          XC Gaussian exp screening on grid/accXCfunc:  20
          Schwarz screening/accCoul: 1.00D-08


      Superposition of Atomic Density Guess
      -------------------------------------

 Sum of atomic energies:        -222.84523480

      Non-variational initial energy
      ------------------------------

 Total energy =    -223.522388
 1-e energy   =    -516.276811
 2-e energy   =     188.254672
 HOMO         =      -0.118514
 LUMO         =       0.071992



 ----------------------------------------------
         Quadratically convergent ROKS

 Convergence threshold     :          5.000E-04
 Maximum no. of iterations :           30
 Final Fock-matrix accuracy:          1.000E-08
 ----------------------------------------------


 Integral file          = ./h2.aoints.0
 Record size in doubles =    65536    No. of integs per rec  =    43688
 Max. records in memory =        4    Max. records in file   =  1361638
 No. of bits per label  =        8    No. of bits per value  =       64


 #quartets = 1.348D+04 #integrals = 8.437D+04 #direct =  0.0% #cached =100.0%


 Grid_pts file          = ./h2.gridpts.0
 Record size in doubles =  12289        No. of grid_pts per rec  =   3070
 Max. records in memory =     61        Max. recs in file   =   7261483


              iter       energy          gnorm     gmax       time
             ----- ------------------- --------- --------- --------
                 1     -224.1509832596  2.15D+00  1.12D+00      1.7
                 2     -224.4922337813  4.83D-01  2.28D-01      2.4
                 3     -224.5137728490  9.59D-02  2.90D-02      3.1
                 4     -224.5141032285  6.11D-03  2.85D-03      3.8
                 5     -224.5141058913  5.98D-04  3.40D-04      4.6
                 6     -224.5141059267  8.94D-05  5.28D-05      5.3


         Total DFT energy =     -224.514105926683
      One electron energy =     -514.568681337142
           Coulomb energy =      214.066620250748
    Exchange-Corr. energy =      -28.511797110422
 Nuclear repulsion energy =      104.499752270133

 Numeric. integr. density =       30.000006617531

     Total iterative time =      4.9s



                       DFT Final Molecular Orbital Analysis
                       ------------------------------------

 Vector    5  Occ=2.000000D+00  E=-9.497615D-01
              MO Center=  1.2D-01,  9.8D-01, -2.9D-01, r^2= 1.8D+00
   Bfn.  Coefficient  Atom+Function         Bfn.  Coefficient  Atom+Function  
  ----- ------------  ---------------      ----- ------------  ---------------
    14      0.501678  5 O  s                  2      0.475738  1 O  s          
    20      0.239378  7 C  s                 25      0.236633  8 C  s          

 Vector    6  Occ=2.000000D+00  E=-9.188678D-01
              MO Center=  1.0D-01,  8.8D-01, -3.5D-01, r^2= 1.9D+00
   Bfn.  Coefficient  Atom+Function         Bfn.  Coefficient  Atom+Function  
  ----- ------------  ---------------      ----- ------------  ---------------
     2      0.544069  1 O  s                 14     -0.518292  5 O  s          
    20      0.205822  7 C  s                 25     -0.181185  8 C  s          
     1     -0.158375  1 O  s                  5      0.157501  1 O  pz         
    13      0.150635  5 O  s          

 Vector    7  Occ=2.000000D+00  E=-6.022294D-01
              MO Center=  7.6D-02,  7.4D-01,  5.4D-01, r^2= 1.4D+00
   Bfn.  Coefficient  Atom+Function         Bfn.  Coefficient  Atom+Function  
  ----- ------------  ---------------      ----- ------------  ---------------
    20      0.410773  7 C  s                 25      0.410930  8 C  s          
     2     -0.299254  1 O  s                 14     -0.300066  5 O  s          
    27     -0.227766  8 C  py                23      0.202955  7 C  pz         
    22      0.157914  7 C  py         

 Vector    8  Occ=2.000000D+00  E=-4.569415D-01
              MO Center=  8.4D-02,  8.0D-01,  6.7D-01, r^2= 2.4D+00
   Bfn.  Coefficient  Atom+Function         Bfn.  Coefficient  Atom+Function  
  ----- ------------  ---------------      ----- ------------  ---------------
    20      0.372259  7 C  s                 25     -0.363744  8 C  s          
    18     -0.317355  6 H  s                  2     -0.298772  1 O  s          
    14      0.289260  5 O  s                  6      0.285875  2 H  s          
    28     -0.269087  8 C  pz                22     -0.174315  7 C  py         
    23      0.167723  7 C  pz         

 Vector    9  Occ=2.000000D+00  E=-4.320459D-01
              MO Center=  6.5D-02,  6.6D-01,  4.0D-01, r^2= 2.0D+00
   Bfn.  Coefficient  Atom+Function         Bfn.  Coefficient  Atom+Function  
  ----- ------------  ---------------      ----- ------------  ---------------
    22      0.424579  7 C  py                28     -0.320451  8 C  pz         
    27     -0.289175  8 C  py                 6     -0.261318  2 H  s          
    18     -0.224167  6 H  s                  4      0.206415  1 O  py         
    23     -0.181179  7 C  pz                16     -0.167418  5 O  py         

 Vector   10  Occ=2.000000D+00  E=-3.359463D-01
              MO Center=  9.2D-02,  8.2D-01, -3.4D-02, r^2= 1.9D+00
   Bfn.  Coefficient  Atom+Function         Bfn.  Coefficient  Atom+Function  
  ----- ------------  ---------------      ----- ------------  ---------------
    26      0.462790  8 C  px                21      0.457022  7 C  px         
     3      0.387984  1 O  px                15      0.377247  5 O  px         

 Vector   11  Occ=2.000000D+00  E=-3.048456D-01
              MO Center=  1.1D-01,  9.1D-01, -6.0D-01, r^2= 2.5D+00
   Bfn.  Coefficient  Atom+Function         Bfn.  Coefficient  Atom+Function  
  ----- ------------  ---------------      ----- ------------  ---------------
     5     -0.471881  1 O  pz                 2      0.453196  1 O  s          
    14      0.430532  5 O  s                 17     -0.361716  5 O  pz         
    23      0.280292  7 C  pz                27     -0.268957  8 C  py         
    16      0.263807  5 O  py                22      0.172980  7 C  py         
    28      0.155926  8 C  pz         

 Vector   12  Occ=2.000000D+00  E=-2.904256D-01
              MO Center=  1.3D-01,  1.0D+00, -4.6D-01, r^2= 2.8D+00
   Bfn.  Coefficient  Atom+Function         Bfn.  Coefficient  Atom+Function  
  ----- ------------  ---------------      ----- ------------  ---------------
     5      0.414666  1 O  pz                14      0.404563  5 O  s          
    16      0.395268  5 O  py                 2     -0.372708  1 O  s          
    17     -0.298703  5 O  pz                28      0.285006  8 C  pz         
    23     -0.282926  7 C  pz                 4      0.221932  1 O  py         
    18      0.169903  6 H  s                  6     -0.164346  2 H  s          

 Vector   13  Occ=2.000000D+00  E=-2.623907D-01
              MO Center=  1.2D-01,  9.4D-01, -3.2D-01, r^2= 2.2D+00
   Bfn.  Coefficient  Atom+Function         Bfn.  Coefficient  Atom+Function  
  ----- ------------  ---------------      ----- ------------  ---------------
    15     -0.546454  5 O  px                 3      0.531336  1 O  px         
    26     -0.382190  8 C  px                21      0.334051  7 C  px         

 Vector   14  Occ=2.000000D+00  E=-1.460944D-01
              MO Center=  1.2D-01,  9.4D-01, -4.7D-01, r^2= 2.4D+00
   Bfn.  Coefficient  Atom+Function         Bfn.  Coefficient  Atom+Function  
  ----- ------------  ---------------      ----- ------------  ---------------
     4      0.607219  1 O  py                17      0.486944  5 O  pz         
    16      0.430925  5 O  py                 5     -0.248038  1 O  pz         
    27      0.186972  8 C  py                20      0.174491  7 C  s          
     6      0.172775  2 H  s                 18     -0.167173  6 H  s          
    25     -0.165466  8 C  s                 22      0.162697  7 C  py         

 Vector   15  Occ=2.000000D+00  E=-9.772825D-02
              MO Center=  1.1D-01,  9.4D-01, -2.9D-01, r^2= 2.7D+00
   Bfn.  Coefficient  Atom+Function         Bfn.  Coefficient  Atom+Function  
  ----- ------------  ---------------      ----- ------------  ---------------
     4      0.615692  1 O  py                16     -0.489474  5 O  py         
    17     -0.437726  5 O  pz                 6      0.291529  2 H  s          
    18      0.290750  6 H  s                 22     -0.173622  7 C  py         
     5     -0.170376  1 O  pz                27      0.158980  8 C  py         

 Vector   16  Occ=0.000000D+00  E=-4.727079D-02
              MO Center=  1.1D-01,  9.1D-01, -2.2D-01, r^2= 2.1D+00
   Bfn.  Coefficient  Atom+Function         Bfn.  Coefficient  Atom+Function  
  ----- ------------  ---------------      ----- ------------  ---------------
    15      0.602536  5 O  px                 3      0.593815  1 O  px         
    21     -0.468195  7 C  px                26     -0.454939  8 C  px         

 Vector   17  Occ=0.000000D+00  E= 8.437885D-02
              MO Center=  9.5D-02,  8.2D-01,  7.7D-02, r^2= 1.9D+00
   Bfn.  Coefficient  Atom+Function         Bfn.  Coefficient  Atom+Function  
  ----- ------------  ---------------      ----- ------------  ---------------
    26     -0.694348  8 C  px                21      0.656941  7 C  px         
     3     -0.472723  1 O  px                15      0.464771  5 O  px         

 Vector   18  Occ=0.000000D+00  E= 3.363962D-01
              MO Center=  6.2D-02,  6.3D-01,  6.7D-01, r^2= 1.7D+00
   Bfn.  Coefficient  Atom+Function         Bfn.  Coefficient  Atom+Function  
  ----- ------------  ---------------      ----- ------------  ---------------
    20      1.118737  7 C  s                 25     -1.114694  8 C  s          
     6     -0.649577  2 H  s                 18      0.628934  6 H  s          
    27      0.394894  8 C  py                22      0.297632  7 C  py         
     5     -0.256423  1 O  pz                23      0.225376  7 C  pz         
     2     -0.209333  1 O  s                 16     -0.210257  5 O  py         

 Vector   19  Occ=0.000000D+00  E= 3.584421D-01
              MO Center=  6.3D-02,  6.6D-01,  8.4D-01, r^2= 2.2D+00
   Bfn.  Coefficient  Atom+Function         Bfn.  Coefficient  Atom+Function  
  ----- ------------  ---------------      ----- ------------  ---------------
     6      0.827051  2 H  s                 18      0.829826  6 H  s          
    28     -0.697104  8 C  pz                23     -0.582443  7 C  pz         
    20     -0.380433  7 C  s                 22      0.377246  7 C  py         
    25     -0.375293  8 C  s                 16      0.273514  5 O  py         
     4     -0.251636  1 O  py                 2     -0.158123  1 O  s          

 Vector   20  Occ=0.000000D+00  E= 4.413823D-01
              MO Center=  7.7D-02,  6.6D-01, -1.5D-03, r^2= 2.1D+00
   Bfn.  Coefficient  Atom+Function         Bfn.  Coefficient  Atom+Function  
  ----- ------------  ---------------      ----- ------------  ---------------
    25      0.790170  8 C  s                  5     -0.647576  1 O  pz         
     2     -0.572268  1 O  s                 23     -0.539794  7 C  pz         
    14     -0.512263  5 O  s                 20      0.473291  7 C  s          
    17     -0.453025  5 O  pz                22     -0.414725  7 C  py         
    27      0.402493  8 C  py                16      0.397265  5 O  py         

 Vector   21  Occ=0.000000D+00  E= 4.854725D-01
              MO Center=  1.0D-01,  8.6D-01,  4.8D-01, r^2= 1.8D+00
   Bfn.  Coefficient  Atom+Function         Bfn.  Coefficient  Atom+Function  
  ----- ------------  ---------------      ----- ------------  ---------------
    27      0.955598  8 C  py                22      0.940035  7 C  py         
    18     -0.566337  6 H  s                  6      0.523267  2 H  s          
    28      0.412672  8 C  pz                17     -0.364778  5 O  pz         
     4     -0.230738  1 O  py                14     -0.209562  5 O  s          
    20      0.177422  7 C  s                  5      0.170365  1 O  pz         

 Vector   22  Occ=0.000000D+00  E= 6.246903D-01
              MO Center=  1.2D-01,  9.0D-01,  1.6D-01, r^2= 1.8D+00
   Bfn.  Coefficient  Atom+Function         Bfn.  Coefficient  Atom+Function  
  ----- ------------  ---------------      ----- ------------  ---------------
    28     -0.880309  8 C  pz                23      0.858637  7 C  pz         
    14     -0.619966  5 O  s                  2      0.485074  1 O  s          
    16      0.467731  5 O  py                27      0.458737  8 C  py         
     5      0.449633  1 O  pz                17     -0.439325  5 O  pz         
    25      0.378965  8 C  s                  6     -0.362762  2 H  s          

 Vector   23  Occ=0.000000D+00  E= 8.649396D-01
              MO Center=  8.2D-01, -6.3D-01,  4.7D-02, r^2= 7.2D-01
   Bfn.  Coefficient  Atom+Function         Bfn.  Coefficient  Atom+Function  
  ----- ------------  ---------------      ----- ------------  ---------------
     8      1.156211  3 V  s                 20     -0.604123  7 C  s          
    21     -0.457147  7 C  px                22      0.382480  7 C  py         
    23      0.296996  7 C  pz                 2      0.250799  1 O  s          
     5      0.244369  1 O  pz         

 Vector   24  Occ=0.000000D+00  E= 9.962605D-01
              MO Center= -9.5D-01, -2.9D-01,  5.2D-02, r^2= 7.4D-01
   Bfn.  Coefficient  Atom+Function         Bfn.  Coefficient  Atom+Function  
  ----- ------------  ---------------      ----- ------------  ---------------
    12      1.347256  4 V  s                 20     -0.899626  7 C  s          
    21      0.607869  7 C  px                23      0.327303  7 C  pz         
     5      0.258115  1 O  pz                22      0.257608  7 C  py         
     2      0.204202  1 O  s          

 Vector   25  Occ=0.000000D+00  E= 2.365811D+00
              MO Center=  9.0D-01, -6.9D-01,  8.8D-02, r^2= 4.7D-01
   Bfn.  Coefficient  Atom+Function         Bfn.  Coefficient  Atom+Function  
  ----- ------------  ---------------      ----- ------------  ---------------
    10      0.768223  3 V  py                 9      0.623489  3 V  px         
    11     -0.280227  3 V  pz                22     -0.205708  7 C  py         
    21     -0.174418  7 C  px                12     -0.153807  4 V  s          


 Parallel integral file used       2 records with       0 large values


 Task  times  cpu:        5.1s     wall:        5.2s
 Summary of allocated global arrays
-----------------------------------
  No active global arrays



                         GA Statistics for process    0
                         ------------------------------

       create   destroy   get      put      acc     scatter   gather  read&inc
calls:  328      328     2.69e+04 1797     2.05e+04   18        0      717     
number of processes/call 1.00e+00 1.00e+00 1.00e+00 0.00e+00 0.00e+00
bytes total:             4.61e+06 1.37e+06 2.34e+06 6.27e+03 0.00e+00 5.74e+03
bytes remote:            0.00e+00 0.00e+00 0.00e+00 0.00e+00 0.00e+00 0.00e+00
Max memory consumed for GA by this process: 131520 bytes
MA_summarize_allocated_blocks: starting scan ...
MA_summarize_allocated_blocks: scan completed: 0 heap blocks, 0 stack blocks
MA usage statistics:

	allocation statistics:
					      heap	     stack
					      ----	     -----
	current number of blocks	         0	         0
	maximum number of blocks	        21	        51
	current total bytes		         0	         0
	maximum total bytes		   8109264	  22510088
	maximum total K-bytes		      8110	     22511
	maximum total M-bytes		         9	        23


                                NWChem Input Module
                                -------------------





                                     CITATION
                                     --------
                Please cite the following reference when publishing
                           results obtained with NWChem:

                 M. Valiev, E.J. Bylaska, N. Govind, K. Kowalski,
              T.P. Straatsma, H.J.J. van Dam, D. Wang, J. Nieplocha,
                        E. Apra, T.L. Windus, W.A. de Jong
                 "NWChem: a comprehensive and scalable open-source
                  solution for large scale molecular simulations"
                      Comput. Phys. Commun. 181, 1477 (2010)
                           doi:10.1016/j.cpc.2010.04.018

                                      AUTHORS
                                      -------
          E. Apra, E. J. Bylaska, W. A. de Jong, N. Govind, K. Kowalski,
       T. P. Straatsma, M. Valiev, H. J. J. van Dam, D. Wang, T. L. Windus,
        J. Hammond, J. Autschbach, K. Bhaskaran-Nair, J. Brabec, K. Lopata,
       S. A. Fischer, S. Krishnamoorthy, W. Ma, M. Klemm, O. Villa, Y. Chen,
    V. Anisimov, F. Aquino, S. Hirata, M. T. Hackler, T. Risthaus, M. Malagoli,
       A. Marenich, A. Otero-de-la-Roza, J. Mullin, P. Nichols, R. Peverati,
     J. Pittner, Y. Zhao, P.-D. Fan, A. Fonari, M. Williamson, R. J. Harrison,
       J. R. Rehr, M. Dupuis, D. Silverstein, D. M. A. Smith, J. Nieplocha,
        V. Tipparaju, M. Krishnan, B. E. Van Kuiken, A. Vazquez-Mayagoitia,
        L. Jensen, M. Swart, Q. Wu, T. Van Voorhis, A. A. Auer, M. Nooijen,
      L. D. Crosby, E. Brown, G. Cisneros, G. I. Fann, H. Fruchtl, J. Garza,
        K. Hirao, R. A. Kendall, J. A. Nichols, K. Tsemekhman, K. Wolinski,
     J. Anchell, D. E. Bernholdt, P. Borowski, T. Clark, D. Clerc, H. Dachsel,
   M. J. O. Deegan, K. Dyall, D. Elwood, E. Glendening, M. Gutowski, A. C. Hess,
         J. Jaffe, B. G. Johnson, J. Ju, R. Kobayashi, R. Kutteh, Z. Lin,
   R. Littlefield, X. Long, B. Meng, T. Nakajima, S. Niu, L. Pollack, M. Rosing,
   K. Glaesemann, G. Sandrone, M. Stave, H. Taylor, G. Thomas, J. H. van Lenthe,
                               A. T. Wong, Z. Zhang.

 Total times  cpu:        5.3s     wall:        5.4s
