H                                                                       
SP        RHF                                                         Gen                 
Number of atoms                            I                1
Info1-9                                    I   N=           9
          20          19           0           0           0         110
           1           1           2
Charge                                     I               -1
Multiplicity                               I                1
Number of electrons                        I                2
Number of alpha electrons                  I                1
Number of beta electrons                   I                1
Number of basis functions                  I                7
Number of independent functions            I                7
Number of point charges in /Mol/           I                0
Number of translation vectors              I                0
Atomic numbers                             I   N=           1
           1
Nuclear charges                            R   N=           1
  1.00000000E+00
Current cartesian coordinates              R   N=           3
  0.00000000E+00  0.00000000E+00  0.00000000E+00
Force Field                                I                0
Int Atom Types                             I   N=           1
           0
MM charges                                 R   N=           1
  0.00000000E+00
Integer atomic weights                     I   N=           1
           1
Real atomic weights                        R   N=           1
  1.00782504E+00
Atom fragment info                         I   N=           1
           0
Atom residue num                           I   N=           1
           0
Nuclear spins                              I   N=           1
           1
Nuclear ZEff                               R   N=           1
 -1.00000000E+00
Nuclear ZNuc                               R   N=           1
  1.00000000E+00
Nuclear QMom                               R   N=           1
  0.00000000E+00
Nuclear GFac                               R   N=           1
  2.79284600E+00
MicOpt                                     I   N=           1
          -1
Number of contracted shells                I                3
Number of primitive shells                 I                4
Pure/Cartesian d shells                    I                1
Pure/Cartesian f shells                    I                1
Highest angular momentum                   I                1
Largest degree of contraction              I                2
Shell types                                I   N=           3
           0           1           1
Number of primitives per shell             I   N=           3
           2           1           1
Shell to atom map                          I   N=           3
           1           1           1
Primitive exponents                        R   N=           4
  8.00000000E-01  5.00000000E-01  2.00000000E-01  1.00000000E-01
Contraction coefficients                   R   N=           4
  2.88088320E-01  7.20220799E-01  1.00000000E+00  1.00000000E+00
Coordinates of each shell                  R   N=           9
  0.00000000E+00  0.00000000E+00  0.00000000E+00  0.00000000E+00  0.00000000E+00
  0.00000000E+00  0.00000000E+00  0.00000000E+00  0.00000000E+00
Constraint Structure                       R   N=           3
  0.00000000E+00  0.00000000E+00  0.00000000E+00
Num ILSW                                   I              100
ILSW                                       I   N=         100
           0           1           0           0           2           0
           0           0           0           0           0          -1
           5           0           0           1           0           0
           0           0           1           0           0           0
           1           1           0           0           0           0
           0           0      100000           0          -1           0
           0           0           0           0           0           0
           0           0           0           1           0           0
           0           0           1           0           0           0
           0           0           4          41           0           0
           0           0           0           0           0           0
           0           0           0           0           0           0
           0           0           0           0           0           0
           0           0           0           0           0           0
           0           0           0           0           0           0
           0           0           0           0           0           0
           0           0           0           0
Num RLSW                                   I               41
RLSW                                       R   N=          41
  1.00000000E+00  1.00000000E+00  1.00000000E+00  1.00000000E+00  1.00000000E+00
  0.00000000E+00  0.00000000E+00  1.00000000E+00  0.00000000E+00  0.00000000E+00
  0.00000000E+00  0.00000000E+00  1.00000000E+00  0.00000000E+00  0.00000000E+00
  0.00000000E+00  0.00000000E+00  1.00000000E+00  0.00000000E+00  0.00000000E+00
  0.00000000E+00  0.00000000E+00  1.00000000E+00  0.00000000E+00  0.00000000E+00
  0.00000000E+00  0.00000000E+00  1.00000000E+00  0.00000000E+00  0.00000000E+00
  0.00000000E+00  0.00000000E+00  0.00000000E+00  0.00000000E+00  0.00000000E+00
  0.00000000E+00  0.00000000E+00  0.00000000E+00  1.00000000E+00  1.00000000E+00
  0.00000000E+00
MxBond                                     I                1
NBond                                      I   N=           1
           0
IBond                                      I   N=           1
           0
RBond                                      R   N=           1
  0.00000000E+00
Virial Ratio                               R      7.647888627255013E-01
SCF Energy                                 R      1.050307192522395E-01
Total Energy                               R      1.050307192522395E-01
RMS Density                                R      6.590318439891548E-09
External E-field                           R   N=          35
  0.00000000E+00  0.00000000E+00  0.00000000E+00  0.00000000E+00  0.00000000E+00
  0.00000000E+00  0.00000000E+00  0.00000000E+00  0.00000000E+00  0.00000000E+00
  0.00000000E+00  0.00000000E+00  0.00000000E+00  0.00000000E+00  0.00000000E+00
  0.00000000E+00  0.00000000E+00  0.00000000E+00  0.00000000E+00  0.00000000E+00
  0.00000000E+00  0.00000000E+00  0.00000000E+00  0.00000000E+00  0.00000000E+00
  0.00000000E+00  0.00000000E+00  0.00000000E+00  0.00000000E+00  0.00000000E+00
  0.00000000E+00  0.00000000E+00  0.00000000E+00  0.00000000E+00  0.00000000E+00
IOpCl                                      I                0
IROHF                                      I                0
Alpha Orbital Energies                     R   N=           7
  1.89037324E-01  2.44757512E-01  3.73331662E-01  3.73331662E-01  8.13727419E-01
  8.13727419E-01  8.35180091E-01
Alpha MO coefficients                      R   N=          49
  7.61554034E-16  6.61412890E-03 -2.33692146E-01  3.51433396E-02 -3.34855802E-02
  1.18312134E+00 -1.77921406E-01  1.00000000E+00 -1.25174236E-16  5.37396429E-16
 -1.19358824E-16  9.13297532E-16 -8.04707294E-16  4.84146661E-16 -1.30156737E-15
 -3.50910369E-01 -2.76765846E-02 -1.17997722E-01  1.23131623E+00  9.71149072E-02
  4.14044507E-01 -7.26345297E-17  1.20754196E-01 -4.88625403E-02 -3.47646975E-01
 -4.23716751E-01  1.71454720E-01  1.21986525E+00 -2.50656535E-16 -5.34709349E-01
  2.63278881E-01  1.85135630E+00  4.09958338E-01 -2.01854284E-01 -1.41942338E+00
 -2.98664538E-16  1.86919103E+00  1.31281533E-01  5.21191012E-01 -1.43309715E+00
 -1.00652736E-01 -3.99593913E-01 -3.37854213E-16 -5.49996039E-02  1.94326050E+00
 -2.92233458E-01  4.41295712E-02 -1.55919764E+00  2.34476910E-01
Total SCF Density                          R   N=          28
  1.15992909E-30  1.00740331E-17  8.74934022E-05 -3.55938392E-16 -3.09133995E-03
  1.09224038E-01  5.35271041E-17  4.64885156E-04 -1.64254449E-02  2.47010864E-03
 -5.10021573E-17 -4.42955887E-04  1.56506341E-02 -2.35359023E-03  2.24256816E-03
  1.80202166E-15  1.56506341E-02 -5.52972330E-01  8.31576704E-02 -7.92350092E-02
  2.79955223E+00 -2.70993530E-16 -2.35359023E-03  8.31576704E-02 -1.25055048E-02
  1.19156030E-02 -4.21005227E-01  6.33120537E-02
Mulliken Charges                           R   N=           1
 -1.00000000E+00
ONIOM Charges                              I   N=          16
          -1           0           0           0           0           0
           0           0           0           0           0           0
           0           0           0           0
ONIOM Multiplicities                       I   N=          16
           1           0           0           0           0           0
           0           0           0           0           0           0
           0           0           0           0
Atom Layers                                I   N=           1
           1
Atom Modifiers                             I   N=           1
           0
Force Field                                I                0
Int Atom Modified Types                    I   N=           1
           0
Link Atoms                                 I   N=           1
           0
Atom Modified MM Charges                   R   N=           1
  0.00000000E+00
Link Distances                             R   N=           4
  0.00000000E+00  0.00000000E+00  0.00000000E+00  0.00000000E+00
Cartesian Gradient                         R   N=           3
  0.00000000E+00  0.00000000E+00  0.00000000E+00
Dipole Moment                              R   N=           3
  2.02419284E-17 -7.15193150E-16  1.07552933E-16
Quadrupole Moment                          R   N=           6
  3.77401498E+00 -7.30613361E+00  3.53211864E+00  3.13850014E-01 -4.71977250E-02
  1.66760246E+00
QEq coupling tensors                       R   N=           6
 -3.72308951E-02 -3.09615013E-03  7.20754676E-02  4.65608526E-04 -1.64510032E-02
 -3.48445725E-02
