 argument  1 = h2he.inp
                                         
                                         


              Northwest Computational Chemistry Package (NWChem) 6.6
              ------------------------------------------------------


                    Environmental Molecular Sciences Laboratory
                       Pacific Northwest National Laboratory
                                Richland, WA 99352

                              Copyright (c) 1994-2015
                       Pacific Northwest National Laboratory
                            Battelle Memorial Institute

             NWChem is an open-source computational chemistry package
                        distributed under the terms of the
                      Educational Community License (ECL) 2.0
             A copy of the license is included with this distribution
                              in the LICENSE.TXT file

                                  ACKNOWLEDGMENT
                                  --------------

            This software and its documentation were developed at the
            EMSL at Pacific Northwest National Laboratory, a multiprogram
            national laboratory, operated for the U.S. Department of Energy
            by Battelle under Contract Number DE-AC05-76RL01830. Support
            for this work was provided by the Department of Energy Office
            of Biological and Environmental Research, Office of Basic
            Energy Sciences, and the Office of Advanced Scientific Computing.


           Job information
           ---------------

    hostname        = R700
    program         = nwchem
    date            = Mon Nov 30 08:49:53 2015

    compiled        = Thu_Oct_22_13:27:42_2015
    source          = /home/samio/src/quantumChemistry/nwchem-6.6
    nwchem branch   = 6.6
    nwchem revision = 27746
    ga revision     = 10594
    input           = h2he.inp
    prefix          = h2he.
    data base       = ./h2he.db
    status          = startup
    nproc           =        1
    time left       =     -1s



           Memory information
           ------------------

    heap     =   13107194 doubles =    100.0 Mbytes
    stack    =   13107195 doubles =    100.0 Mbytes
    global   =   26214400 doubles =    200.0 Mbytes (distinct from heap & stack)
    total    =   52428789 doubles =    400.0 Mbytes
    verify   = yes
    hardfail = no 


           Directory information
           ---------------------

  0 permanent = .
  0 scratch   = .




                                NWChem Input Module
                                -------------------



 Scaling coordinates for geometry "geometry" by  1.889725989
 (inverse scale =  0.529177249)

 Turning off AUTOSYM since
 SYMMETRY directive was detected!


          ------
          auto-z
          ------
     1 autoz failed with cvr_scaling = 1.2 changing to 1.3


                             Geometry "geometry" -> ""
                             -------------------------

 Output coordinates in angstroms (scale by  1.889725989 to convert to a.u.)

  No.       Tag          Charge          X              Y              Z
 ---- ---------------- ---------- -------------- -------------- --------------
    1 h                    1.0000     0.00000000     0.00000000     0.00000000
    2 he                   2.0000     1.00000000     0.00000000     0.00000000
    3 h                    1.0000     1.00000000     1.00000000     0.00000000

      Atomic Mass 
      ----------- 

      h                  1.007825
      he                 4.002600


 Effective nuclear repulsion energy (a.u.)       2.4908938172

            Nuclear Dipole moment (a.u.) 
            ----------------------------
        X                 Y               Z
 ---------------- ---------------- ----------------
     5.6691779657     1.8897259886     0.0000000000



                                Z-matrix (autoz)
                                -------- 

 Units are Angstrom for bonds and degrees for angles

      Type          Name      I     J     K     L     M      Value
      ----------- --------  ----- ----- ----- ----- ----- ----------
    1 Stretch                  1     2                       1.00000
    2 Stretch                  2     3                       1.00000
    3 Bend                     1     2     3                90.00000


            XYZ format geometry
            -------------------
     3
 geometry
 h                     0.00000000     0.00000000     0.00000000
 he                    1.00000000     0.00000000     0.00000000
 h                     1.00000000     1.00000000     0.00000000

                      Basis "ao basis" -> "" (cartesian)
                      -----
  hydrogen (Hydrogen)
  -------------------
            Exponent  Coefficients 
       -------------- ---------------------------------------------------------
  1 S  5.00000000E-01  1.000000

  2 P  2.00000000E-01  1.000000

  hellium (Helium)
  ----------------
            Exponent  Coefficients 
       -------------- ---------------------------------------------------------
  1 S  8.26400000E+01  0.002006
  1 S  1.24100000E+01  0.015343
  1 S  2.82400000E+00  0.075579



 Summary of "ao basis" -> "" (cartesian)
 ------------------------------------------------------------------------------
       Tag                 Description            Shells   Functions and Types
 ---------------- ------------------------------  ------  ---------------------
 hydrogen                user specified              2        4   1s1p
 hellium                 user specified              1        1   1s


                                 NWChem SCF Module
                                 -----------------



  ao basis        = "ao basis"
  functions       =     9
  atoms           =     3
  closed shells   =     2
  open shells     =     0
  charge          =   0.00
  wavefunction    = RHF 
  input vectors   = atomic
  output vectors  = ./h2he.movecs
  use symmetry    = F
  symmetry adapt  = F


 Summary of "ao basis" -> "ao basis" (cartesian)
 ------------------------------------------------------------------------------
       Tag                 Description            Shells   Functions and Types
 ---------------- ------------------------------  ------  ---------------------
 hydrogen                user specified              2        4   1s1p
 hellium                 user specified              1        1   1s


 ====================================
 Begin kinetic 1-e integrals
 ====================================
1eke          1   H  s     1   H  s           0.75000000
1eke          5   He s     1   H  s          -0.00328913
1eke          6   H  s     1   H  s          -0.02394298
1eke          7   H  p     1   H  s          -0.15801769
1eke          8   H  p     1   H  s          -0.15801769
1eke          2   H  p     2   H  p           0.50000000
1eke          3   H  p     3   H  p           0.50000000
1eke          4   H  p     4   H  p           0.50000000
1eke          5   He s     2   H  p           0.18127889
1eke          6   H  s     2   H  p           0.15801769
1eke          6   H  s     3   H  p           0.15801769
1eke          7   H  p     2   H  p          -0.01996084
1eke          8   H  p     2   H  p          -0.19481702
1eke          7   H  p     3   H  p          -0.19481702
1eke          8   H  p     3   H  p          -0.01996084
1eke          9   H  p     4   H  p           0.17485618
1eke          1   H  s     5   He s          -0.00328913
1eke          2   H  p     5   He s           0.18127889
1eke          5   He s     5   He s           5.45553505
1eke          6   H  s     5   He s          -0.00328913
1eke          8   H  p     5   He s          -0.18127889
1eke          1   H  s     6   H  s          -0.02394298
1eke          2   H  p     6   H  s           0.15801769
1eke          3   H  p     6   H  s           0.15801769
1eke          5   He s     6   H  s          -0.00328913
1eke          6   H  s     6   H  s           0.75000000
1eke          1   H  s     7   H  p          -0.15801769
1eke          1   H  s     8   H  p          -0.15801769
1eke          2   H  p     7   H  p          -0.01996084
1eke          3   H  p     7   H  p          -0.19481702
1eke          2   H  p     8   H  p          -0.19481702
1eke          3   H  p     8   H  p          -0.01996084
1eke          4   H  p     9   H  p           0.17485618
1eke          5   He s     8   H  p          -0.18127889
1eke          7   H  p     7   H  p           0.50000000
1eke          8   H  p     8   H  p           0.50000000
1eke          9   H  p     9   H  p           0.50000000
 ====================================
 End kinetic 1-e integrals
 ====================================
 ====================================
 Begin overlap 1-e integrals
 ====================================
1eov          1   H  s     1   H  s           1.00000000
1eov          5   He s     1   H  s           0.12248079
1eov          6   H  s     1   H  s           0.16770779
1eov          7   H  p     1   H  s          -0.37376729
1eov          8   H  p     1   H  s          -0.37376729
1eov          2   H  p     2   H  p           1.00000000
1eov          3   H  p     3   H  p           1.00000000
1eov          4   H  p     4   H  p           1.00000000
1eov          5   He s     2   H  p           0.26412643
1eov          6   H  s     2   H  p           0.37376729
1eov          6   H  s     3   H  p           0.37376729
1eov          7   H  p     2   H  p           0.13991490
1eov          8   H  p     2   H  p          -0.34966242
1eov          7   H  p     3   H  p          -0.34966242
1eov          8   H  p     3   H  p           0.13991490
1eov          9   H  p     4   H  p           0.48957732
1eov          1   H  s     5   He s           0.12248079
1eov          2   H  p     5   He s           0.26412643
1eov          5   He s     5   He s           1.00000000
1eov          6   H  s     5   He s           0.12248079
1eov          8   H  p     5   He s          -0.26412643
1eov          1   H  s     6   H  s           0.16770779
1eov          2   H  p     6   H  s           0.37376729
1eov          3   H  p     6   H  s           0.37376729
1eov          5   He s     6   H  s           0.12248079
1eov          6   H  s     6   H  s           1.00000000
1eov          1   H  s     7   H  p          -0.37376729
1eov          1   H  s     8   H  p          -0.37376729
1eov          2   H  p     7   H  p           0.13991490
1eov          3   H  p     7   H  p          -0.34966242
1eov          2   H  p     8   H  p          -0.34966242
1eov          3   H  p     8   H  p           0.13991490
1eov          4   H  p     9   H  p           0.48957732
1eov          5   He s     8   H  p          -0.26412643
1eov          7   H  p     7   H  p           1.00000000
1eov          8   H  p     8   H  p           1.00000000
1eov          9   H  p     9   H  p           1.00000000
 ====================================
 End overlap 1-e integrals
 ====================================

 Forming initial guess at       0.1s


      Superposition of Atomic Density Guess
      -------------------------------------

 Sum of atomic energies:          -0.65624429

      Non-variational initial energy
      ------------------------------

 Total energy =      -0.327056
 1-e energy   =      -7.769782
 2-e energy   =       4.951832
 HOMO         =       0.072432
 LUMO         =       0.197096


 Starting SCF solution at       0.1s



 ----------------------------------------------
         Quadratically convergent ROHF

 Convergence threshold     :          1.000E-04
 Maximum no. of iterations :           30
 Final Fock-matrix accuracy:          1.000E-07
 ----------------------------------------------


 #quartets = 1.200D+02 #integrals = 6.660D+02 #direct =  0.0% #cached =100.0%


 Integral file          = ./h2he.aoints.0
 Record size in doubles =  65536        No. of integs per rec  =  43688
 Max. records in memory =      2        Max. records in file   =  29844
 No. of bits per label  =      8        No. of bits per value  =     64


              iter       energy          gnorm     gmax       time
             ----- ------------------- --------- --------- --------
                 1       -2.6914054720  1.46D+00  9.76D-01      0.0
                 2       -2.8805495028  4.88D-01  4.59D-01      0.0
                 3       -2.8967274066  1.69D-01  1.60D-01      0.0
                 4       -2.8982164205  1.47D-02  1.21D-02      0.0
                 5       -2.8982647016  2.75D-05  2.07D-05      0.0


       Final RHF  results 
       ------------------ 

         Total SCF energy =     -2.898264701573
      One-electron energy =     -8.354794389838
      Two-electron energy =      2.965635871049
 Nuclear repulsion energy =      2.490893817216

        Time for solution =      0.0s


             Final eigenvalues
             -----------------

              1      
    1   -1.0161
    2   -0.1957
    3    0.1435
    4    0.3190
    5    0.4855
    6    0.5203
    7    0.5604
    8    0.6849
    9    1.5950

                       ROHF Final Molecular Orbital Analysis
                       -------------------------------------

 Vector    1  Occ=2.000000D+00  E=-1.016071D+00
              MO Center=  8.1D-01,  1.9D-01,  1.5D-18, r^2= 6.8D-01
   Bfn.  Coefficient  Atom+Function         Bfn.  Coefficient  Atom+Function  
  ----- ------------  ---------------      ----- ------------  ---------------
     5      0.446396  2 He s                  1      0.322167  1 H  s          
     6      0.322167  3 H  s                  2      0.285440  1 H  px         
     8     -0.285440  3 H  py         

 Vector    2  Occ=2.000000D+00  E=-1.956906D-01
              MO Center=  5.8D-01,  4.2D-01, -7.0D-17, r^2= 1.7D+00
   Bfn.  Coefficient  Atom+Function         Bfn.  Coefficient  Atom+Function  
  ----- ------------  ---------------      ----- ------------  ---------------
     1      0.490413  1 H  s                  6     -0.490413  3 H  s          
     3     -0.347549  1 H  py                 7     -0.347549  3 H  px         
     2     -0.164442  1 H  px                 8     -0.164442  3 H  py         

 Vector    3  Occ=0.000000D+00  E= 1.434539D-01
              MO Center=  3.6D-01,  6.4D-01, -2.4D-18, r^2= 1.5D+00
   Bfn.  Coefficient  Atom+Function         Bfn.  Coefficient  Atom+Function  
  ----- ------------  ---------------      ----- ------------  ---------------
     1      0.513871  1 H  s                  6      0.513871  3 H  s          
     2     -0.359555  1 H  px                 8      0.359555  3 H  py         
     3      0.177659  1 H  py                 7     -0.177659  3 H  px         
     5     -0.175179  2 He s          

 Vector    4  Occ=0.000000D+00  E= 3.190499D-01
              MO Center=  5.0D-01,  5.0D-01,  1.1D-17, r^2= 2.1D+00
   Bfn.  Coefficient  Atom+Function         Bfn.  Coefficient  Atom+Function  
  ----- ------------  ---------------      ----- ------------  ---------------
     4      0.579367  1 H  pz                 9      0.579367  3 H  pz         

 Vector    5  Occ=0.000000D+00  E= 4.854658D-01
              MO Center=  4.7D-01,  5.3D-01, -5.2D-18, r^2= 2.4D+00
   Bfn.  Coefficient  Atom+Function         Bfn.  Coefficient  Atom+Function  
  ----- ------------  ---------------      ----- ------------  ---------------
     3      0.626502  1 H  py                 7     -0.626502  3 H  px         
     1     -0.404508  1 H  s                  6     -0.404508  3 H  s          
     2      0.229449  1 H  px                 8     -0.229449  3 H  py         

 Vector    6  Occ=0.000000D+00  E= 5.203456D-01
              MO Center=  3.4D-01,  6.6D-01,  2.2D-16, r^2= 2.7D+00
   Bfn.  Coefficient  Atom+Function         Bfn.  Coefficient  Atom+Function  
  ----- ------------  ---------------      ----- ------------  ---------------
     2      0.833505  1 H  px                 8      0.833505  3 H  py         
     3     -0.534676  1 H  py                 7     -0.534676  3 H  px         

 Vector    7  Occ=0.000000D+00  E= 5.604335D-01
              MO Center=  5.0D-01,  5.0D-01, -3.8D-17, r^2= 2.7D+00
   Bfn.  Coefficient  Atom+Function         Bfn.  Coefficient  Atom+Function  
  ----- ------------  ---------------      ----- ------------  ---------------
     4      0.989737  1 H  pz                 9     -0.989737  3 H  pz         

 Vector    8  Occ=0.000000D+00  E= 6.849469D-01
              MO Center=  5.8D-01,  4.2D-01, -4.8D-17, r^2= 2.9D+00
   Bfn.  Coefficient  Atom+Function         Bfn.  Coefficient  Atom+Function  
  ----- ------------  ---------------      ----- ------------  ---------------
     1      0.892528  1 H  s                  6     -0.892528  3 H  s          
     3      0.795687  1 H  py                 7      0.795687  3 H  px         
     2      0.563928  1 H  px                 8      0.563928  3 H  py         

 Vector    9  Occ=0.000000D+00  E= 1.595016D+00
              MO Center=  8.3D-01,  1.7D-01, -5.0D-19, r^2= 1.0D+00
   Bfn.  Coefficient  Atom+Function         Bfn.  Coefficient  Atom+Function  
  ----- ------------  ---------------      ----- ------------  ---------------
     5      0.938754  2 He s                  2     -0.447366  1 H  px         
     8      0.447366  3 H  py         


 center of mass
 --------------
 x =   1.57326969 y =   0.31645629 z =   0.00000000

 moments of inertia (a.u.)
 ------------------
           2.996312733441          -0.602695156714           0.000000000000
          -0.602695156714           2.996312733441           0.000000000000
           0.000000000000           0.000000000000           5.992625466882

  Mulliken analysis of the total density
  --------------------------------------

    Atom       Charge   Shell Charges
 -----------   ------   -------------------------------------------------------
    1 H    1     1.70   0.93  0.77
    2 He   2     0.60   0.60
    3 H    1     1.70   0.93  0.77

       Multipole analysis of the density wrt the origin
       ------------------------------------------------

     L   x y z        total         open         nuclear
     -   - - -        -----         ----         -------
     0   0 0 0     -0.000000      0.000000      4.000000

     1   1 0 0      0.409456      0.000000      5.669178
     1   0 1 0     -0.409456      0.000000      1.889726
     1   0 0 1      0.000000      0.000000      0.000000

     2   2 0 0     -3.473369      0.000000     10.713193
     2   1 1 0     -3.123390      0.000000      3.571064
     2   1 0 1     -0.000000      0.000000      0.000000
     2   0 2 0     -5.020888      0.000000      3.571064
     2   0 1 1     -0.000000      0.000000      0.000000
     2   0 0 2     -2.574796      0.000000      0.000000


 Parallel integral file used       1 records with       0 large values


 Task  times  cpu:        0.0s     wall:        0.1s
 Summary of allocated global arrays
-----------------------------------
  No active global arrays



                         GA Statistics for process    0
                         ------------------------------

       create   destroy   get      put      acc     scatter   gather  read&inc
calls:  204      204      821      509      503        0        0       17     
number of processes/call 1.00e+00 1.00e+00 1.00e+00 0.00e+00 0.00e+00
bytes total:             2.01e+05 1.39e+05 2.54e+04 0.00e+00 0.00e+00 6.80e+01
bytes remote:            0.00e+00 0.00e+00 0.00e+00 0.00e+00 0.00e+00 0.00e+00
Max memory consumed for GA by this process: 8520 bytes
MA_summarize_allocated_blocks: starting scan ...
MA_summarize_allocated_blocks: scan completed: 0 heap blocks, 0 stack blocks
MA usage statistics:

	allocation statistics:
					      heap	     stack
					      ----	     -----
	current number of blocks	         0	         0
	maximum number of blocks	        17	        14
	current total bytes		         0	         0
	maximum total bytes		   1052732	  22509084
	maximum total K-bytes		      1053	     22510
	maximum total M-bytes		         2	        23


                                NWChem Input Module
                                -------------------





                                     CITATION
                                     --------
                Please cite the following reference when publishing
                           results obtained with NWChem:

                 M. Valiev, E.J. Bylaska, N. Govind, K. Kowalski,
              T.P. Straatsma, H.J.J. van Dam, D. Wang, J. Nieplocha,
                        E. Apra, T.L. Windus, W.A. de Jong
                 "NWChem: a comprehensive and scalable open-source
                  solution for large scale molecular simulations"
                      Comput. Phys. Commun. 181, 1477 (2010)
                           doi:10.1016/j.cpc.2010.04.018

                                      AUTHORS
                                      -------
          E. Apra, E. J. Bylaska, W. A. de Jong, N. Govind, K. Kowalski,
       T. P. Straatsma, M. Valiev, H. J. J. van Dam, D. Wang, T. L. Windus,
        J. Hammond, J. Autschbach, K. Bhaskaran-Nair, J. Brabec, K. Lopata,
       S. A. Fischer, S. Krishnamoorthy, W. Ma, M. Klemm, O. Villa, Y. Chen,
    V. Anisimov, F. Aquino, S. Hirata, M. T. Hackler, T. Risthaus, M. Malagoli,
       A. Marenich, A. Otero-de-la-Roza, J. Mullin, P. Nichols, R. Peverati,
     J. Pittner, Y. Zhao, P.-D. Fan, A. Fonari, M. Williamson, R. J. Harrison,
       J. R. Rehr, M. Dupuis, D. Silverstein, D. M. A. Smith, J. Nieplocha,
        V. Tipparaju, M. Krishnan, B. E. Van Kuiken, A. Vazquez-Mayagoitia,
        L. Jensen, M. Swart, Q. Wu, T. Van Voorhis, A. A. Auer, M. Nooijen,
      L. D. Crosby, E. Brown, G. Cisneros, G. I. Fann, H. Fruchtl, J. Garza,
        K. Hirao, R. A. Kendall, J. A. Nichols, K. Tsemekhman, K. Wolinski,
     J. Anchell, D. E. Bernholdt, P. Borowski, T. Clark, D. Clerc, H. Dachsel,
   M. J. O. Deegan, K. Dyall, D. Elwood, E. Glendening, M. Gutowski, A. C. Hess,
         J. Jaffe, B. G. Johnson, J. Ju, R. Kobayashi, R. Kutteh, Z. Lin,
   R. Littlefield, X. Long, B. Meng, T. Nakajima, S. Niu, L. Pollack, M. Rosing,
   K. Glaesemann, G. Sandrone, M. Stave, H. Taylor, G. Thomas, J. H. van Lenthe,
                               A. T. Wong, Z. Zhang.

 Total times  cpu:        0.0s     wall:        0.1s
