H                                                                       
SP        RHF                                                         Gen                 
Number of atoms                            I                3
Info1-9                                    I   N=           9
          23          22           0           0           0         110
           1           1           2
Charge                                     I                0
Multiplicity                               I                1
Number of electrons                        I                4
Number of alpha electrons                  I                2
Number of beta electrons                   I                2
Number of basis functions                  I                6
Number of independent functions            I                6
Number of point charges in /Mol/           I                0
Number of translation vectors              I                0
Atomic numbers                             I   N=           3
           1           2           1
Nuclear charges                            R   N=           3
  1.00000000E+00  2.00000000E+00  1.00000000E+00
Current cartesian coordinates              R   N=           9
  0.00000000E+00  0.00000000E+00  0.00000000E+00  1.88972613E+00  0.00000000E+00
  0.00000000E+00  1.88972613E+00  1.88972613E+00  0.00000000E+00
Force Field                                I                0
Int Atom Types                             I   N=           3
           0           0           0
MM charges                                 R   N=           3
  0.00000000E+00  0.00000000E+00  0.00000000E+00
Integer atomic weights                     I   N=           3
           1           4           1
Real atomic weights                        R   N=           3
  1.00782504E+00  4.00260325E+00  1.00782504E+00
Atom fragment info                         I   N=           3
           0           0           0
Atom residue num                           I   N=           3
           0           0           0
Nuclear spins                              I   N=           3
           1           0           1
Nuclear ZEff                               R   N=           3
 -1.00000000E+00 -2.00000000E+00 -1.00000000E+00
Nuclear ZNuc                               R   N=           3
  1.00000000E+00  2.00000000E+00  1.00000000E+00
Nuclear QMom                               R   N=           3
  0.00000000E+00  0.00000000E+00  0.00000000E+00
Nuclear GFac                               R   N=           3
  2.79284600E+00  0.00000000E+00  2.79284600E+00
MicOpt                                     I   N=           3
          -1          -1          -1
Number of contracted shells                I                4
Number of primitive shells                 I                4
Pure/Cartesian d shells                    I                1
Pure/Cartesian f shells                    I                1
Highest angular momentum                   I                1
Largest degree of contraction              I                1
Shell types                                I   N=           4
           0           0           1           0
Number of primitives per shell             I   N=           4
           1           1           1           1
Shell to atom map                          I   N=           4
           1           2           2           3
Primitive exponents                        R   N=           4
  5.00000000E-01  1.00000000E-01  2.00000000E-01  5.00000000E-01
Contraction coefficients                   R   N=           4
  1.00000000E+00  1.00000000E+00  1.00000000E+00  1.00000000E+00
Coordinates of each shell                  R   N=          12
  0.00000000E+00  0.00000000E+00  0.00000000E+00  1.88972613E+00  0.00000000E+00
  0.00000000E+00  1.88972613E+00  0.00000000E+00  0.00000000E+00  1.88972613E+00
  1.88972613E+00  0.00000000E+00
Constraint Structure                       R   N=           9
  0.00000000E+00  0.00000000E+00  0.00000000E+00  1.88972613E+00  0.00000000E+00
  0.00000000E+00  1.88972613E+00  1.88972613E+00  0.00000000E+00
Num ILSW                                   I              100
ILSW                                       I   N=         100
           0           1           0           0           2           0
           0           0           0           0           0          -1
           5           0           0           1           0           0
           0           0           1           0           0           0
           1           1           0           0           0           0
           0           0      100000           0          -1           0
           0           0           0           0           0           0
           0           0           0           1           0           0
           0           0           1           0           0           0
           0           0           4          41           0           0
           0           0           0           0           0           0
           0           0           0           0           0           0
           0           0           0           0           0           0
           0           0           0           0           0           0
           0           0           0           0           0           0
           0           0           0           0           0           0
           0           0           0           0
Num RLSW                                   I               41
RLSW                                       R   N=          41
  1.00000000E+00  1.00000000E+00  1.00000000E+00  1.00000000E+00  1.00000000E+00
  0.00000000E+00  0.00000000E+00  1.00000000E+00  0.00000000E+00  0.00000000E+00
  0.00000000E+00  0.00000000E+00  1.00000000E+00  0.00000000E+00  0.00000000E+00
  0.00000000E+00  0.00000000E+00  1.00000000E+00  0.00000000E+00  0.00000000E+00
  0.00000000E+00  0.00000000E+00  1.00000000E+00  0.00000000E+00  0.00000000E+00
  0.00000000E+00  0.00000000E+00  1.00000000E+00  0.00000000E+00  0.00000000E+00
  0.00000000E+00  0.00000000E+00  0.00000000E+00  0.00000000E+00  0.00000000E+00
  0.00000000E+00  0.00000000E+00  0.00000000E+00  1.00000000E+00  1.00000000E+00
  0.00000000E+00
MxBond                                     I                1
NBond                                      I   N=           3
           0           0           0
IBond                                      I   N=           3
           0           0           0
RBond                                      R   N=           3
  0.00000000E+00  0.00000000E+00  0.00000000E+00
Virial Ratio                               R      2.105223311467642E+00
SCF Energy                                 R     -2.119919092297611E+00
Total Energy                               R     -2.119919092297611E+00
RMS Density                                R      3.295038103193637E-11
External E-field                           R   N=          35
  0.00000000E+00  0.00000000E+00  0.00000000E+00  0.00000000E+00  0.00000000E+00
  0.00000000E+00  0.00000000E+00  0.00000000E+00  0.00000000E+00  0.00000000E+00
  0.00000000E+00  0.00000000E+00  0.00000000E+00  0.00000000E+00  0.00000000E+00
  0.00000000E+00  0.00000000E+00  0.00000000E+00  0.00000000E+00  0.00000000E+00
  0.00000000E+00  0.00000000E+00  0.00000000E+00  0.00000000E+00  0.00000000E+00
  0.00000000E+00  0.00000000E+00  0.00000000E+00  0.00000000E+00  0.00000000E+00
  0.00000000E+00  0.00000000E+00  0.00000000E+00  0.00000000E+00  0.00000000E+00
IOpCl                                      I                0
IROHF                                      I                0
Alpha Orbital Energies                     R   N=           6
 -7.44287823E-01 -3.27365410E-01  8.66887557E-02  2.06585925E-01  6.05339717E-01
  6.72650417E-01
Alpha MO coefficients                      R   N=          36
  3.61810587E-01  5.59928565E-01  7.31150047E-03 -7.31150047E-03  2.30803244E-16
  3.61810587E-01  4.09927005E-01  6.08256855E-17 -3.96932106E-01 -3.96932106E-01
  6.53226680E-16 -4.09927005E-01 -1.74090646E-01  5.25370096E-01  5.44127652E-01
 -5.44127652E-01 -1.29220572E-17 -1.74090646E-01  3.27358971E-16 -1.13519417E-16
  3.73090813E-16  3.77179846E-16  1.00000000E+00 -2.03779071E-16  9.77843454E-01
  1.42826036E-14  8.82112698E-01  8.82112698E-01 -8.06333663E-16 -9.77843454E-01
 -1.17667672E+00  1.34996661E+00 -8.96059218E-01  8.96059218E-01  4.25652730E-17
 -1.17667672E+00
Total SCF Density                          R   N=          21
  5.97894100E-01  4.05176166E-01  6.27039997E-01 -3.20135622E-01  8.18783594E-03
  3.15217110E-01 -3.30717135E-01 -8.18783594E-03  3.15003278E-01  3.15217110E-01
  7.02564627E-16  2.58466658E-16 -5.15198248E-16 -5.21948320E-16  9.59950465E-31
 -7.42664973E-02  4.05176166E-01  3.30717135E-01  3.20135622E-01 -3.68536399E-16
  5.97894100E-01
Mulliken Charges                           R   N=           3
  2.16490373E-02 -4.32980746E-02  2.16490373E-02
ONIOM Charges                              I   N=          16
           0           0           0           0           0           0
           0           0           0           0           0           0
           0           0           0           0
ONIOM Multiplicities                       I   N=          16
           1           0           0           0           0           0
           0           0           0           0           0           0
           0           0           0           0
Atom Layers                                I   N=           3
           1           1           1
Atom Modifiers                             I   N=           3
           0           0           0
Force Field                                I                0
Int Atom Modified Types                    I   N=           3
           0           0           0
Link Atoms                                 I   N=           3
           0           0           0
Atom Modified MM Charges                   R   N=           3
  0.00000000E+00  0.00000000E+00  0.00000000E+00
Link Distances                             R   N=          12
  0.00000000E+00  0.00000000E+00  0.00000000E+00  0.00000000E+00  0.00000000E+00
  0.00000000E+00  0.00000000E+00  0.00000000E+00  0.00000000E+00  0.00000000E+00
  0.00000000E+00  0.00000000E+00
Cartesian Gradient                         R   N=           9
  0.00000000E+00  0.00000000E+00  0.00000000E+00  0.00000000E+00  0.00000000E+00
  0.00000000E+00  0.00000000E+00  0.00000000E+00  0.00000000E+00
Dipole Moment                              R   N=           3
  3.35098659E-01 -3.35098659E-01 -9.25521715E-16
Quadrupole Moment                          R   N=           6
  3.15728983E-01 -9.50760401E-01  6.35031418E-01 -2.03122045E+00  1.63819848E-16
  1.63261865E-15
QEq coupling tensors                       R   N=          18
 -5.82751322E-01 -5.27980518E-02  3.05768858E-01  0.00000000E+00  0.00000000E+00
  2.76982463E-01  1.55882331E-02  1.69044584E-01  1.55882331E-02  0.00000000E+00
  0.00000000E+00 -3.11764662E-02  3.05768858E-01 -5.27980518E-02 -5.82751322E-01
  0.00000000E+00  0.00000000E+00  2.76982463E-01
