 Entering Gaussian System, Link 0=/opt/programs/g09/g09
 Input=/home/chang/test/H2He.com
 Output=/scratch/chang/H2He/H2He.out
 Initial command:
 /opt/programs/g09/l1.exe /scratch/chang/H2He/Gau-11802.inp -scrdir=/scratch/chang/H2He/
 Entering Link 1 = /opt/programs/g09/l1.exe PID=     11803.
  
 Copyright (c) 1988,1990,1992,1993,1995,1998,2003,2009, Gaussian, Inc.
                  All Rights Reserved.
  
 This is part of the Gaussian(R) 09 program.  It is based on
 the Gaussian(R) 03 system (copyright 2003, Gaussian, Inc.),
 the Gaussian(R) 98 system (copyright 1998, Gaussian, Inc.),
 the Gaussian(R) 94 system (copyright 1995, Gaussian, Inc.),
 the Gaussian 92(TM) system (copyright 1992, Gaussian, Inc.),
 the Gaussian 90(TM) system (copyright 1990, Gaussian, Inc.),
 the Gaussian 88(TM) system (copyright 1988, Gaussian, Inc.),
 the Gaussian 86(TM) system (copyright 1986, Carnegie Mellon
 University), and the Gaussian 82(TM) system (copyright 1983,
 Carnegie Mellon University). Gaussian is a federally registered
 trademark of Gaussian, Inc.
  
 This software contains proprietary and confidential information,
 including trade secrets, belonging to Gaussian, Inc.
  
 This software is provided under written license and may be
 used, copied, transmitted, or stored only in accord with that
 written license.
  
 The following legend is applicable only to US Government
 contracts under FAR:
  
                    RESTRICTED RIGHTS LEGEND
  
 Use, reproduction and disclosure by the US Government is
 subject to restrictions as set forth in subparagraphs (a)
 and (c) of the Commercial Computer Software - Restricted
 Rights clause in FAR 52.227-19.
  
 Gaussian, Inc.
 340 Quinnipiac St., Bldg. 40, Wallingford CT 06492
  
  
 ---------------------------------------------------------------
 Warning -- This program may not be used in any manner that
 competes with the business of Gaussian, Inc. or will provide
 assistance to any competitor of Gaussian, Inc.  The licensee
 of this program is prohibited from giving any competitor of
 Gaussian, Inc. access to this program.  By using this program,
 the user acknowledges that Gaussian, Inc. is engaged in the
 business of creating and licensing software in the field of
 computational chemistry and represents and warrants to the
 licensee that it is not a competitor of Gaussian, Inc. and that
 it will not use this program in any manner prohibited above.
 ---------------------------------------------------------------
  

 Cite this work as:
 Gaussian 09, Revision A.02,
 M. J. Frisch, G. W. Trucks, H. B. Schlegel, G. E. Scuseria, 
 M. A. Robb, J. R. Cheeseman, G. Scalmani, V. Barone, B. Mennucci, 
 G. A. Petersson, H. Nakatsuji, M. Caricato, X. Li, H. P. Hratchian, 
 A. F. Izmaylov, J. Bloino, G. Zheng, J. L. Sonnenberg, M. Hada, 
 M. Ehara, K. Toyota, R. Fukuda, J. Hasegawa, M. Ishida, T. Nakajima, 
 Y. Honda, O. Kitao, H. Nakai, T. Vreven, J. A. Montgomery, Jr., 
 J. E. Peralta, F. Ogliaro, M. Bearpark, J. J. Heyd, E. Brothers, 
 K. N. Kudin, V. N. Staroverov, R. Kobayashi, J. Normand, 
 K. Raghavachari, A. Rendell, J. C. Burant, S. S. Iyengar, J. Tomasi, 
 M. Cossi, N. Rega, J. M. Millam, M. Klene, J. E. Knox, J. B. Cross, 
 V. Bakken, C. Adamo, J. Jaramillo, R. Gomperts, R. E. Stratmann, 
 O. Yazyev, A. J. Austin, R. Cammi, C. Pomelli, J. W. Ochterski, 
 R. L. Martin, K. Morokuma, V. G. Zakrzewski, G. A. Voth, 
 P. Salvador, J. J. Dannenberg, S. Dapprich, A. D. Daniels, 
 O. Farkas, J. B. Foresman, J. V. Ortiz, J. Cioslowski, 
 and D. J. Fox, Gaussian, Inc., Wallingford CT, 2009.
 
 ******************************************
 Gaussian 09:  EM64L-G09RevA.02 11-Jun-2009
                27-Nov-2015 
 ******************************************
 %nproc=4
 Will use up to    4 processors via shared memory.
 %chk=/home/chang/test/
 ----------------------------------------------------------------------
 # hf gen 6d 10f nosymm Scf(maxcycle=1000,verytight) int(grid=ultrafine
 )
 ----------------------------------------------------------------------
 1/38=1/1;
 2/12=2,15=1,17=6,18=5,40=1/2;
 3/5=7,8=22,11=9,16=1,25=1,30=1,75=-5/1,2,3;
 4//1;
 5/5=2,7=1000,17=3,38=5/2;
 6/7=2,8=2,9=2,10=2,28=1/1;
 99/5=1,9=1/99;
 -
 H
 -
 Symbolic Z-matrix:
 Charge =  0 Multiplicity = 1
 H                     0.        0.        0. 
 He                    1.        0.        0. 
 H                     1.        1.        0. 
 
                          Input orientation:                          
 ---------------------------------------------------------------------
 Center     Atomic      Atomic             Coordinates (Angstroms)
 Number     Number       Type             X           Y           Z
 ---------------------------------------------------------------------
      1          1           0        0.000000    0.000000    0.000000
      2          2           0        1.000000    0.000000    0.000000
      3          1           0        1.000000    1.000000    0.000000
 ---------------------------------------------------------------------
                    Distance matrix (angstroms):
                    1          2          3
     1  H    0.000000
     2  He   1.000000   0.000000
     3  H    1.414214   1.000000   0.000000
 Symmetry turned off by external request.
 Stoichiometry    H2He
 Framework group  C2V[C2(He),SGV(H2)]
 Deg. of freedom     2
 Full point group                 C2V     NOp   4
 Rotational constants (GHZ):    753.9802563    501.4551003    301.1602653
 General basis read from cards:  (6D, 10F)
 Integral buffers will be    131072 words long.
 Raffenetti 1 integral format.
 Two-electron integral symmetry is turned off.
     3 basis functions,     5 primitive gaussians,     3 cartesian basis functions
     2 alpha electrons        2 beta electrons
       nuclear repulsion energy         2.4908936270 Hartrees.
 NAtoms=    3 NActive=    3 NUniq=    3 SFac= 7.50D-01 NAtFMM=   80 NAOKFM=F Big=F
 One-electron integrals computed using PRISM.
 NBasis=     3 RedAO= T  NBF=     3
 NBsUse=     3 1.00D-06 NBFU=     3
 Harris functional with IExCor=  205 diagonalized for initial guess.
 ExpMin= 5.00D-01 ExpMax= 8.26D+01 ExpMxC= 8.26D+01 IAcc=3 IRadAn=         5 AccDes= 0.00D+00
 HarFok:  IExCor=  205 AccDes= 0.00D+00 IRadAn=         5 IDoV= 1
 ScaDFX=  1.000000  1.000000  1.000000  1.000000
 FoFCou: FMM=F IPFlag=           0 FMFlag=      100000 FMFlg1=           0
         NFxFlg=           0 DoJE=T BraDBF=F KetDBF=T FulRan=T
         Omega=  0.000000  0.000000  1.000000  0.000000  0.000000 ICntrl=     500 IOpCl=  0
         NMat0=    1 NMatS0=    1 NMatT0=    0 NMatD0=    1 NMtDS0=    0 NMtDT0=    0
         I1Cent=           4 NGrid=           0.
 Symmetry not used in FoFCou.
 Requested convergence on RMS density matrix=1.00D-08 within1000 cycles.
 Requested convergence on MAX density matrix=1.00D-06.
 Requested convergence on             energy=1.00D-06.
 No special actions if energy rises.
 Keep R1 ints in memory in canonical form, NReq=1807738.
 SCF Done:  E(RHF) =  -2.22812852359     A.U. after    6 cycles
             Convg  =    0.7203D-12             -V/T =  1.4221

 **********************************************************************

            Population analysis using the SCF density.

 **********************************************************************

 Alpha  occ. eigenvalues --   -0.70669  -0.03714
 Alpha virt. eigenvalues --    0.90649
          Condensed to atoms (all electrons):
              1          2          3
     1  H    1.743403   0.062702  -0.110620
     2  He   0.062702   0.483626   0.062702
     3  H   -0.110620   0.062702   1.743403
 Mulliken atomic charges:
              1
     1  H   -0.695485
     2  He   1.390970
     3  H   -0.695485
 Sum of Mulliken atomic charges =   0.00000
 Mulliken charges with hydrogens summed into heavy atoms:
              1
     2  He   0.000000
 Sum of Mulliken charges with hydrogens summed into heavy atoms =   0.00000
 Electronic spatial extent (au):  <R**2>=             19.6831
 Charge=              0.0000 electrons
 Dipole moment (field-independent basis, Debye):
    X=              3.1257    Y=             -3.1257    Z=              0.0000  Tot=              4.4204
 Quadrupole moment (field-independent basis, Debye-Ang):
   XX=              0.6410   YY=             -5.6103   ZZ=             -2.2924
   XY=             -3.3913   XZ=              0.0000   YZ=              0.0000
 Traceless Quadrupole moment (field-independent basis, Debye-Ang):
   XX=              3.0616   YY=             -3.1897   ZZ=              0.1281
   XY=             -3.3913   XZ=              0.0000   YZ=              0.0000
 Octapole moment (field-independent basis, Debye-Ang**2):
  XXX=             -0.7091  YYY=             -6.7448  ZZZ=              0.0000  XYY=             -4.6415
  XXY=             -4.6258  XXZ=              0.0000  XZZ=             -1.1908  YZZ=             -1.1017
  YYZ=              0.0000  XYZ=              0.0000
 Hexadecapole moment (field-independent basis, Debye-Ang**3):
 XXXX=             -5.4312 YYYY=            -11.2513 ZZZZ=             -0.9318 XXXY=             -7.0072
 XXXZ=              0.0000 YYYX=             -6.9228 YYYZ=              0.0000 ZZZX=              0.0000
 ZZZY=              0.0000 XXYY=             -6.1884 XXZZ=             -1.5355 YYZZ=             -1.4464
 XXYZ=              0.0000 YYXZ=              0.0000 ZZXY=             -1.1389
 N-N= 2.490893627003D+00 E-N=-1.322877630732D+01  KE= 5.278391454906D+00
 1\1\GINC-STUDIX15\SP\RHF\Gen\H2He1\CHANG\27-Nov-2015\0\\# hf gen 6d 10
 f nosymm Scf(maxcycle=1000,verytight) int(grid=ultrafine)\\H\\0,1\H,0,
 0.,0.,0.\He,0,1.,0.,0.\H,0,1.,1.,0.\\Version=EM64L-G09RevA.02\HF=-2.22
 81285\RMSD=7.203e-13\Dipole=1.2297324,-1.2297324,0.\Quadrupole=2.27622
 58,-2.3714892,0.0952634,-2.521373,0.,0.\PG=C02V [C2(He1),SGV(H2)]\\@


 Some scientists claim that hydrogen, because it is so
 plentiful, is the basic building block of the universe. 
 I dispute that. I say that stupidity is far more
 abundant than hydrogen, and THAT is the basic building 
 block of the universe.
                   --Frank Zappa
 Job cpu time:  0 days  0 hours  0 minutes  1.4 seconds.
 File lengths (MBytes):  RWF=      5 Int=      0 D2E=      0 Chk=      2 Scr=      1
 Normal termination of Gaussian 09 at Fri Nov 27 09:04:58 2015.
