H                                                                       
SP        RHF                                                         Gen                 
Number of atoms                            I                3
Info1-9                                    I   N=           9
          23          22           0           0           0         110
           1           1           2
Charge                                     I                0
Multiplicity                               I                1
Number of electrons                        I                4
Number of alpha electrons                  I                2
Number of beta electrons                   I                2
Number of basis functions                  I                3
Number of independent functions            I                3
Number of point charges in /Mol/           I                0
Number of translation vectors              I                0
Atomic numbers                             I   N=           3
           1           2           1
Nuclear charges                            R   N=           3
  1.00000000E+00  2.00000000E+00  1.00000000E+00
Current cartesian coordinates              R   N=           9
  0.00000000E+00  0.00000000E+00  0.00000000E+00  1.88972613E+00  0.00000000E+00
  0.00000000E+00  1.88972613E+00  1.88972613E+00  0.00000000E+00
Force Field                                I                0
Int Atom Types                             I   N=           3
           0           0           0
MM charges                                 R   N=           3
  0.00000000E+00  0.00000000E+00  0.00000000E+00
Integer atomic weights                     I   N=           3
           1           4           1
Real atomic weights                        R   N=           3
  1.00782504E+00  4.00260325E+00  1.00782504E+00
Atom fragment info                         I   N=           3
           0           0           0
Atom residue num                           I   N=           3
           0           0           0
Nuclear spins                              I   N=           3
           1           0           1
Nuclear ZEff                               R   N=           3
 -1.00000000E+00 -2.00000000E+00 -1.00000000E+00
Nuclear ZNuc                               R   N=           3
  1.00000000E+00  2.00000000E+00  1.00000000E+00
Nuclear QMom                               R   N=           3
  0.00000000E+00  0.00000000E+00  0.00000000E+00
Nuclear GFac                               R   N=           3
  2.79284600E+00  0.00000000E+00  2.79284600E+00
MicOpt                                     I   N=           3
          -1          -1          -1
Number of contracted shells                I                3
Number of primitive shells                 I                5
Pure/Cartesian d shells                    I                1
Pure/Cartesian f shells                    I                1
Highest angular momentum                   I                0
Largest degree of contraction              I                3
Shell types                                I   N=           3
           0           0           0
Number of primitives per shell             I   N=           3
           1           3           1
Shell to atom map                          I   N=           3
           1           2           3
Primitive exponents                        R   N=           5
  5.00000000E-01  8.26400000E+01  1.24100000E+01  2.82400000E+00  5.00000000E-01
Contraction coefficients                   R   N=           5
  1.00000000E+00  2.29507578E-02  1.75540118E-01  8.64703551E-01  1.00000000E+00
Coordinates of each shell                  R   N=           9
  0.00000000E+00  0.00000000E+00  0.00000000E+00  1.88972613E+00  0.00000000E+00
  0.00000000E+00  1.88972613E+00  1.88972613E+00  0.00000000E+00
Constraint Structure                       R   N=           9
  0.00000000E+00  0.00000000E+00  0.00000000E+00  1.88972613E+00  0.00000000E+00
  0.00000000E+00  1.88972613E+00  1.88972613E+00  0.00000000E+00
Num ILSW                                   I              100
ILSW                                       I   N=         100
           0           1           0           0           2           0
           0           0           0           0           0          -1
           5           0           0           1           0           0
           0           0           1           0           0           0
           1           1           0           0           0           0
           0           0      100000           0          -1           0
           0           0           0           0           0           0
           0           0           0           1           0           0
           0           0           1           0           0           0
           0           0           4          41           0           0
           0           0           0           0           0           0
           0           0           0           0           0           0
           0           0           0           0           0           0
           0           0           0           0           0           0
           0           0           0           0           0           0
           0           0           0           0           0           0
           0           0           0           0
Num RLSW                                   I               41
RLSW                                       R   N=          41
  1.00000000E+00  1.00000000E+00  1.00000000E+00  1.00000000E+00  1.00000000E+00
  0.00000000E+00  0.00000000E+00  1.00000000E+00  0.00000000E+00  0.00000000E+00
  0.00000000E+00  0.00000000E+00  1.00000000E+00  0.00000000E+00  0.00000000E+00
  0.00000000E+00  0.00000000E+00  1.00000000E+00  0.00000000E+00  0.00000000E+00
  0.00000000E+00  0.00000000E+00  1.00000000E+00  0.00000000E+00  0.00000000E+00
  0.00000000E+00  0.00000000E+00  1.00000000E+00  0.00000000E+00  0.00000000E+00
  0.00000000E+00  0.00000000E+00  0.00000000E+00  0.00000000E+00  0.00000000E+00
  0.00000000E+00  0.00000000E+00  0.00000000E+00  1.00000000E+00  1.00000000E+00
  0.00000000E+00
MxBond                                     I                1
NBond                                      I   N=           3
           0           0           0
IBond                                      I   N=           3
           0           0           0
RBond                                      R   N=           3
  0.00000000E+00  0.00000000E+00  0.00000000E+00
Virial Ratio                               R      1.422122637667566E+00
SCF Energy                                 R     -2.228128523586743E+00
Total Energy                               R     -2.228128523586743E+00
RMS Density                                R      7.202611192844267E-13
External E-field                           R   N=          35
  0.00000000E+00  0.00000000E+00  0.00000000E+00  0.00000000E+00  0.00000000E+00
  0.00000000E+00  0.00000000E+00  0.00000000E+00  0.00000000E+00  0.00000000E+00
  0.00000000E+00  0.00000000E+00  0.00000000E+00  0.00000000E+00  0.00000000E+00
  0.00000000E+00  0.00000000E+00  0.00000000E+00  0.00000000E+00  0.00000000E+00
  0.00000000E+00  0.00000000E+00  0.00000000E+00  0.00000000E+00  0.00000000E+00
  0.00000000E+00  0.00000000E+00  0.00000000E+00  0.00000000E+00  0.00000000E+00
  0.00000000E+00  0.00000000E+00  0.00000000E+00  0.00000000E+00  0.00000000E+00
IOpCl                                      I                0
IROHF                                      I                0
Alpha Orbital Energies                     R   N=           3
 -7.06691201E-01 -3.71385231E-02  9.06487166E-01
Alpha MO coefficients                      R   N=           9
  5.20529355E-01  4.91744726E-01  5.20529355E-01  7.75080972E-01  2.57797105E-16
 -7.75080972E-01 -4.10524730E-01  8.85753187E-01 -4.10524730E-01
Total SCF Density                          R   N=           6
  1.74340265E+00  5.11935130E-01  4.83625750E-01 -6.59599409E-01  5.11935130E-01
  1.74340265E+00
Mulliken Charges                           R   N=           3
 -6.95484921E-01  1.39096984E+00 -6.95484921E-01
ONIOM Charges                              I   N=          16
           0           0           0           0           0           0
           0           0           0           0           0           0
           0           0           0           0
ONIOM Multiplicities                       I   N=          16
           1           0           0           0           0           0
           0           0           0           0           0           0
           0           0           0           0
Atom Layers                                I   N=           3
           1           1           1
Atom Modifiers                             I   N=           3
           0           0           0
Force Field                                I                0
Int Atom Modified Types                    I   N=           3
           0           0           0
Link Atoms                                 I   N=           3
           0           0           0
Atom Modified MM Charges                   R   N=           3
  0.00000000E+00  0.00000000E+00  0.00000000E+00
Link Distances                             R   N=          12
  0.00000000E+00  0.00000000E+00  0.00000000E+00  0.00000000E+00  0.00000000E+00
  0.00000000E+00  0.00000000E+00  0.00000000E+00  0.00000000E+00  0.00000000E+00
  0.00000000E+00  0.00000000E+00
Cartesian Gradient                         R   N=           9
  0.00000000E+00  0.00000000E+00  0.00000000E+00  0.00000000E+00  0.00000000E+00
  0.00000000E+00  0.00000000E+00  0.00000000E+00  0.00000000E+00
Dipole Moment                              R   N=           3
  1.22973242E+00 -1.22973242E+00  0.00000000E+00
Quadrupole Moment                          R   N=           6
  2.27622578E+00 -2.37148922E+00  9.52634392E-02 -2.52137297E+00  0.00000000E+00
  0.00000000E+00
QEq coupling tensors                       R   N=          18
 -3.54477572E-01  1.01982304E-02  1.79120410E-01  0.00000000E+00  0.00000000E+00
  1.75357162E-01  9.31281084E-02  5.38755929E-02  9.31281084E-02  0.00000000E+00
  0.00000000E+00 -1.86256217E-01  1.79120410E-01  1.01982304E-02 -3.54477572E-01
  0.00000000E+00  0.00000000E+00  1.75357162E-01
