 argument  1 = h2.inp
                                         
                                         


              Northwest Computational Chemistry Package (NWChem) 6.6
              ------------------------------------------------------


                    Environmental Molecular Sciences Laboratory
                       Pacific Northwest National Laboratory
                                Richland, WA 99352

                              Copyright (c) 1994-2015
                       Pacific Northwest National Laboratory
                            Battelle Memorial Institute

             NWChem is an open-source computational chemistry package
                        distributed under the terms of the
                      Educational Community License (ECL) 2.0
             A copy of the license is included with this distribution
                              in the LICENSE.TXT file

                                  ACKNOWLEDGMENT
                                  --------------

            This software and its documentation were developed at the
            EMSL at Pacific Northwest National Laboratory, a multiprogram
            national laboratory, operated for the U.S. Department of Energy
            by Battelle under Contract Number DE-AC05-76RL01830. Support
            for this work was provided by the Department of Energy Office
            of Biological and Environmental Research, Office of Basic
            Energy Sciences, and the Office of Advanced Scientific Computing.


           Job information
           ---------------

    hostname        = R700
    program         = nwchem
    date            = Mon Jan 11 14:57:08 2016

    compiled        = Thu_Oct_22_13:27:42_2015
    source          = /home/samio/src/quantumChemistry/nwchem-6.6
    nwchem branch   = 6.6
    nwchem revision = 27746
    ga revision     = 10594
    input           = h2.inp
    prefix          = h2.
    data base       = ./h2.db
    status          = startup
    nproc           =        1
    time left       =     -1s



           Memory information
           ------------------

    heap     =   13107194 doubles =    100.0 Mbytes
    stack    =   13107195 doubles =    100.0 Mbytes
    global   =   26214400 doubles =    200.0 Mbytes (distinct from heap & stack)
    total    =   52428789 doubles =    400.0 Mbytes
    verify   = yes
    hardfail = no 


           Directory information
           ---------------------

  0 permanent = .
  0 scratch   = .




                                NWChem Input Module
                                -------------------



 Scaling coordinates for geometry "geometry" by  1.889725989
 (inverse scale =  0.529177249)

 Turning off AUTOSYM since
 SYMMETRY directive was detected!


          ------
          auto-z
          ------
     1 autoz failed with cvr_scaling = 1.2 changing to 1.3
     2 autoz failed with cvr_scaling = 1.3 changing to 1.4
     3 autoz failed with cvr_scaling = 1.4 changing to 1.5
     4 autoz failed with cvr_scaling = 1.5 changing to 1.6
     5 autoz failed with cvr_scaling = 1.6 changing to 1.7

 AUTOZ failed to generate good internal coordinates.
 Cartesian coordinates will be used in optimizations.



                             Geometry "geometry" -> ""
                             -------------------------

 Output coordinates in angstroms (scale by  1.889725989 to convert to a.u.)

  No.       Tag          Charge          X              Y              Z
 ---- ---------------- ---------- -------------- -------------- --------------
    1 H                    1.0000     0.00000000     0.00000000     0.00000000
    2 H                    1.0000     1.00000000     1.00000000     0.00000000

      Atomic Mass 
      ----------- 

      H                  1.007825


 Effective nuclear repulsion energy (a.u.)       0.3741848212

            Nuclear Dipole moment (a.u.) 
            ----------------------------
        X                 Y               Z
 ---------------- ---------------- ----------------
     1.8897259886     1.8897259886     0.0000000000


            XYZ format geometry
            -------------------
     2
 geometry
 H                     0.00000000     0.00000000     0.00000000
 H                     1.00000000     1.00000000     0.00000000

                      Basis "ao basis" -> "" (cartesian)
                      -----
  H (Hydrogen)
  ------------
            Exponent  Coefficients 
       -------------- ---------------------------------------------------------
  1 S  1.30100000E+01  0.019685
  1 S  1.96200000E+00  0.137977
  1 S  4.44600000E-01  0.478148

  2 S  1.22000000E-01  1.000000

  3 S  2.97400000E-02  1.000000

  4 P  7.27000000E-01  1.000000

  5 P  1.41000000E-01  1.000000



 Summary of "ao basis" -> "" (cartesian)
 ------------------------------------------------------------------------------
       Tag                 Description            Shells   Functions and Types
 ---------------- ------------------------------  ------  ---------------------
 H                       user specified              5        9   3s2p


                                 NWChem SCF Module
                                 -----------------



  ao basis        = "ao basis"
  functions       =    18
  atoms           =     2
  closed shells   =     1
  open shells     =     0
  charge          =   0.00
  wavefunction    = RHF 
  input vectors   = atomic
  output vectors  = ./h2.movecs
  use symmetry    = F
  symmetry adapt  = F


 Summary of "ao basis" -> "ao basis" (cartesian)
 ------------------------------------------------------------------------------
       Tag                 Description            Shells   Functions and Types
 ---------------- ------------------------------  ------  ---------------------
 H                       user specified              5        9   3s2p



 Forming initial guess at       0.0s


      Superposition of Atomic Density Guess
      -------------------------------------

 Sum of atomic energies:          -0.99866926

      Non-variational initial energy
      ------------------------------

 Total energy =      -0.741285
 1-e energy   =      -1.733363
 2-e energy   =       0.617893
 HOMO         =      -0.361394
 LUMO         =      -0.030124


 Starting SCF solution at       0.0s



 ----------------------------------------------
         Quadratically convergent ROHF

 Convergence threshold     :          1.000E-04
 Maximum no. of iterations :           30
 Final Fock-matrix accuracy:          1.000E-07
 ----------------------------------------------


 #quartets = 1.540D+03 #integrals = 8.360D+03 #direct =  0.0% #cached =100.0%


 Integral file          = ./h2.aoints.0
 Record size in doubles =  65536        No. of integs per rec  =  43688
 Max. records in memory =      2        Max. records in file   =  14982
 No. of bits per label  =      8        No. of bits per value  =     64


              iter       energy          gnorm     gmax       time
             ----- ------------------- --------- --------- --------
                 1       -1.0186531276  8.17D-02  5.71D-02      0.0
                 2       -1.0197024525  4.98D-04  3.44D-04      0.0
                 3       -1.0197025113  6.68D-07  4.47D-07      0.0


       Final RHF  results 
       ------------------ 

         Total SCF energy =     -1.019702511291
      One-electron energy =     -1.884107283469
      Two-electron energy =      0.490219950961
 Nuclear repulsion energy =      0.374184821217

        Time for solution =      0.0s


             Final eigenvalues
             -----------------

              1      
    1   -0.4518
    2    0.0240
    3    0.0768
    4    0.1296
    5    0.2619
    6    0.2619
    7    0.3870
    8    0.4153
    9    0.4153
   10    0.5622
   11    0.8213

                       ROHF Final Molecular Orbital Analysis
                       -------------------------------------

 Vector    1  Occ=2.000000D+00  E=-4.518337D-01
              MO Center=  5.0D-01,  5.0D-01,  8.2D-17, r^2= 1.3D+00
   Bfn.  Coefficient  Atom+Function         Bfn.  Coefficient  Atom+Function  
  ----- ------------  ---------------      ----- ------------  ---------------
     1      0.337967  1 H  s                 10      0.337967  2 H  s          
     2      0.277429  1 H  s                 11      0.277429  2 H  s          

 Vector    2  Occ=0.000000D+00  E= 2.403715D-02
              MO Center=  5.0D-01,  5.0D-01, -1.0D-17, r^2= 7.1D+00
   Bfn.  Coefficient  Atom+Function         Bfn.  Coefficient  Atom+Function  
  ----- ------------  ---------------      ----- ------------  ---------------
     3      1.482410  1 H  s                 12     -1.482410  2 H  s          
     2      0.248286  1 H  s                 11     -0.248286  2 H  s          
     1      0.217209  1 H  s                 10     -0.217209  2 H  s          

 Vector    3  Occ=0.000000D+00  E= 7.682808D-02
              MO Center=  5.0D-01,  5.0D-01, -1.1D-16, r^2= 1.1D+01
   Bfn.  Coefficient  Atom+Function         Bfn.  Coefficient  Atom+Function  
  ----- ------------  ---------------      ----- ------------  ---------------
     3      0.733207  1 H  s                 12      0.733207  2 H  s          
     2     -0.464467  1 H  s                 11     -0.464467  2 H  s          

 Vector    4  Occ=0.000000D+00  E= 1.296218D-01
              MO Center=  5.0D-01,  5.0D-01,  2.7D-17, r^2= 9.9D+00
   Bfn.  Coefficient  Atom+Function         Bfn.  Coefficient  Atom+Function  
  ----- ------------  ---------------      ----- ------------  ---------------
     3      2.268822  1 H  s                 12     -2.268822  2 H  s          
     2     -0.642538  1 H  s                 11      0.642538  2 H  s          
     1     -0.222546  1 H  s                 10      0.222546  2 H  s          
     7      0.160743  1 H  px                 8      0.160743  1 H  py         
    16      0.160743  2 H  px                17      0.160743  2 H  py         

 Vector    5  Occ=0.000000D+00  E= 2.619431D-01
              MO Center=  5.0D-01,  5.0D-01,  9.9D-18, r^2= 2.8D+00
   Bfn.  Coefficient  Atom+Function         Bfn.  Coefficient  Atom+Function  
  ----- ------------  ---------------      ----- ------------  ---------------
     7      0.391793  1 H  px                 8     -0.391793  1 H  py         
    16      0.391793  2 H  px                17     -0.391793  2 H  py         

 Vector    6  Occ=0.000000D+00  E= 2.619431D-01
              MO Center=  5.0D-01,  5.0D-01,  1.7D-17, r^2= 2.8D+00
   Bfn.  Coefficient  Atom+Function         Bfn.  Coefficient  Atom+Function  
  ----- ------------  ---------------      ----- ------------  ---------------
     9      0.554079  1 H  pz                18      0.554079  2 H  pz         

 Vector    7  Occ=0.000000D+00  E= 3.869649D-01
              MO Center=  5.0D-01,  5.0D-01,  4.5D-18, r^2= 4.5D+00
   Bfn.  Coefficient  Atom+Function         Bfn.  Coefficient  Atom+Function  
  ----- ------------  ---------------      ----- ------------  ---------------
     2      0.638934  1 H  s                 11      0.638934  2 H  s          
     7     -0.592327  1 H  px                 8     -0.592327  1 H  py         
    16      0.592327  2 H  px                17      0.592327  2 H  py         
     3     -0.294326  1 H  s                 12     -0.294326  2 H  s          

 Vector    8  Occ=0.000000D+00  E= 4.153323D-01
              MO Center=  5.0D-01,  5.0D-01,  2.1D-16, r^2= 3.8D+00
   Bfn.  Coefficient  Atom+Function         Bfn.  Coefficient  Atom+Function  
  ----- ------------  ---------------      ----- ------------  ---------------
     9      0.892043  1 H  pz                18     -0.892043  2 H  pz         
     7      0.508822  1 H  px                 8     -0.508822  1 H  py         
    16     -0.508822  2 H  px                17      0.508822  2 H  py         

 Vector    9  Occ=0.000000D+00  E= 4.153323D-01
              MO Center=  5.0D-01,  5.0D-01, -2.2D-17, r^2= 3.8D+00
   Bfn.  Coefficient  Atom+Function         Bfn.  Coefficient  Atom+Function  
  ----- ------------  ---------------      ----- ------------  ---------------
     9      0.719583  1 H  pz                18     -0.719583  2 H  pz         
     7     -0.630769  1 H  px                 8      0.630769  1 H  py         
    16      0.630769  2 H  px                17     -0.630769  2 H  py         

 Vector   10  Occ=0.000000D+00  E= 5.622076D-01
              MO Center=  5.0D-01,  5.0D-01, -2.2D-17, r^2= 4.9D+00
   Bfn.  Coefficient  Atom+Function         Bfn.  Coefficient  Atom+Function  
  ----- ------------  ---------------      ----- ------------  ---------------
     2      4.783900  1 H  s                 11     -4.783900  2 H  s          
     7      2.337171  1 H  px                 8      2.337171  1 H  py         
    16      2.337171  2 H  px                17      2.337171  2 H  py         
     3      0.786502  1 H  s                 12     -0.786502  2 H  s          
     1      0.259008  1 H  s                 10     -0.259008  2 H  s          

 Vector   11  Occ=0.000000D+00  E= 8.213379D-01
              MO Center=  5.0D-01,  5.0D-01, -2.2D-16, r^2= 2.7D+00
   Bfn.  Coefficient  Atom+Function         Bfn.  Coefficient  Atom+Function  
  ----- ------------  ---------------      ----- ------------  ---------------
     1      1.011534  1 H  s                 10      1.011534  2 H  s          
     2     -0.959897  1 H  s                 11     -0.959897  2 H  s          
     3      0.312327  1 H  s                 12      0.312327  2 H  s          
     7     -0.175669  1 H  px                 8     -0.175669  1 H  py         
    16      0.175669  2 H  px                17      0.175669  2 H  py         


 center of mass
 --------------
 x =   0.94486299 y =   0.94486299 z =   0.00000000

 moments of inertia (a.u.)
 ------------------
           1.799503945078          -1.799503945078           0.000000000000
          -1.799503945078           1.799503945078           0.000000000000
           0.000000000000           0.000000000000           3.599007890155

  Mulliken analysis of the total density
  --------------------------------------

    Atom       Charge   Shell Charges
 -----------   ------   -------------------------------------------------------
    1 H    1     1.00   0.48  0.47  0.03  0.01  0.02
    2 H    1     1.00   0.48  0.47  0.03  0.01  0.02

       Multipole analysis of the density wrt the origin
       ------------------------------------------------

     L   x y z        total         open         nuclear
     -   - - -        -----         ----         -------
     0   0 0 0     -0.000000      0.000000      2.000000

     1   1 0 0     -0.000000      0.000000      1.889726
     1   0 1 0     -0.000000      0.000000      1.889726
     1   0 0 1     -0.000000      0.000000      0.000000

     2   2 0 0     -1.592674      0.000000      3.571064
     2   1 1 0      0.698024      0.000000      3.571064
     2   1 0 1     -0.000000      0.000000      0.000000
     2   0 2 0     -1.592674      0.000000      3.571064
     2   0 1 1     -0.000000      0.000000      0.000000
     2   0 0 2     -2.290698      0.000000      0.000000


 Parallel integral file used       1 records with       0 large values


 Task  times  cpu:        0.0s     wall:        0.1s
 Summary of allocated global arrays
-----------------------------------
  No active global arrays



                         GA Statistics for process    0
                         ------------------------------

       create   destroy   get      put      acc     scatter   gather  read&inc
calls:  128      128      892      563      368        0        0       56     
number of processes/call 1.00e+00 1.00e+00 1.00e+00 0.00e+00 0.00e+00
bytes total:             4.58e+05 2.85e+05 6.15e+04 0.00e+00 0.00e+00 2.24e+02
bytes remote:            0.00e+00 0.00e+00 0.00e+00 0.00e+00 0.00e+00 0.00e+00
Max memory consumed for GA by this process: 33696 bytes
MA_summarize_allocated_blocks: starting scan ...
MA_summarize_allocated_blocks: scan completed: 0 heap blocks, 0 stack blocks
MA usage statistics:

	allocation statistics:
					      heap	     stack
					      ----	     -----
	current number of blocks	         0	         0
	maximum number of blocks	        17	        14
	current total bytes		         0	         0
	maximum total bytes		   1054064	  22509276
	maximum total K-bytes		      1055	     22510
	maximum total M-bytes		         2	        23


                                NWChem Input Module
                                -------------------





                                     CITATION
                                     --------
                Please cite the following reference when publishing
                           results obtained with NWChem:

                 M. Valiev, E.J. Bylaska, N. Govind, K. Kowalski,
              T.P. Straatsma, H.J.J. van Dam, D. Wang, J. Nieplocha,
                        E. Apra, T.L. Windus, W.A. de Jong
                 "NWChem: a comprehensive and scalable open-source
                  solution for large scale molecular simulations"
                      Comput. Phys. Commun. 181, 1477 (2010)
                           doi:10.1016/j.cpc.2010.04.018

                                      AUTHORS
                                      -------
          E. Apra, E. J. Bylaska, W. A. de Jong, N. Govind, K. Kowalski,
       T. P. Straatsma, M. Valiev, H. J. J. van Dam, D. Wang, T. L. Windus,
        J. Hammond, J. Autschbach, K. Bhaskaran-Nair, J. Brabec, K. Lopata,
       S. A. Fischer, S. Krishnamoorthy, W. Ma, M. Klemm, O. Villa, Y. Chen,
    V. Anisimov, F. Aquino, S. Hirata, M. T. Hackler, T. Risthaus, M. Malagoli,
       A. Marenich, A. Otero-de-la-Roza, J. Mullin, P. Nichols, R. Peverati,
     J. Pittner, Y. Zhao, P.-D. Fan, A. Fonari, M. Williamson, R. J. Harrison,
       J. R. Rehr, M. Dupuis, D. Silverstein, D. M. A. Smith, J. Nieplocha,
        V. Tipparaju, M. Krishnan, B. E. Van Kuiken, A. Vazquez-Mayagoitia,
        L. Jensen, M. Swart, Q. Wu, T. Van Voorhis, A. A. Auer, M. Nooijen,
      L. D. Crosby, E. Brown, G. Cisneros, G. I. Fann, H. Fruchtl, J. Garza,
        K. Hirao, R. A. Kendall, J. A. Nichols, K. Tsemekhman, K. Wolinski,
     J. Anchell, D. E. Bernholdt, P. Borowski, T. Clark, D. Clerc, H. Dachsel,
   M. J. O. Deegan, K. Dyall, D. Elwood, E. Glendening, M. Gutowski, A. C. Hess,
         J. Jaffe, B. G. Johnson, J. Ju, R. Kobayashi, R. Kutteh, Z. Lin,
   R. Littlefield, X. Long, B. Meng, T. Nakajima, S. Niu, L. Pollack, M. Rosing,
   K. Glaesemann, G. Sandrone, M. Stave, H. Taylor, G. Thomas, J. H. van Lenthe,
                               A. T. Wong, Z. Zhang.

 Total times  cpu:        0.0s     wall:        0.1s
