 argument  1 = l_0.1.nw
                                         
                                         


              Northwest Computational Chemistry Package (NWChem) 6.6
              ------------------------------------------------------


                    Environmental Molecular Sciences Laboratory
                       Pacific Northwest National Laboratory
                                Richland, WA 99352

                              Copyright (c) 1994-2015
                       Pacific Northwest National Laboratory
                            Battelle Memorial Institute

             NWChem is an open-source computational chemistry package
                        distributed under the terms of the
                      Educational Community License (ECL) 2.0
             A copy of the license is included with this distribution
                              in the LICENSE.TXT file

                                  ACKNOWLEDGMENT
                                  --------------

            This software and its documentation were developed at the
            EMSL at Pacific Northwest National Laboratory, a multiprogram
            national laboratory, operated for the U.S. Department of Energy
            by Battelle under Contract Number DE-AC05-76RL01830. Support
            for this work was provided by the Department of Energy Office
            of Biological and Environmental Research, Office of Basic
            Energy Sciences, and the Office of Advanced Scientific Computing.


           Job information
           ---------------

    hostname        = pc-avl09
    program         = nwchem
    date            = Tue Dec  1 14:05:35 2015

    compiled        = Don_Nov_19_17:13:44_2015
    source          = /home/diana/Desktop/bin/nwchem-6.6
    nwchem branch   = 6.6
    nwchem revision = 27746
    ga revision     = 10594
    input           = l_0.1.nw
    prefix          = l_0.05.
    data base       = ./l_0.05.db
    status          = restart
    nproc           =        1
    time left       =     -1s



           Memory information
           ------------------

    heap     =   13107196 doubles =    100.0 Mbytes
    stack    =   13107201 doubles =    100.0 Mbytes
    global   =   26214400 doubles =    200.0 Mbytes (distinct from heap & stack)
    total    =   52428797 doubles =    400.0 Mbytes
    verify   = yes
    hardfail = no 


           Directory information
           ---------------------

  0 permanent = .
  0 scratch   = .


           Previous task information
           -------------------------

    Theory    = dft                             
    Operation =                               
    Status    = ok                            
    Qmmm      = F
    Ignore    = F


           Geometries in the database
           --------------------------

       Name                              Natoms  Last Modified
       --------------------------------  ------  ------------------------
    1  geometry                               8  Tue Dec  1 11:07:55 2015  

  The geometry named "geometry" is the default for restart



           Basis sets in the database
           --------------------------

       Name                              Natoms  Last Modified
        --------------------------------  ------  ------------------------
    1  ao basis                               7  Tue Dec  1 11:07:55 2015  

  The basis set named "ao basis" is the default AO basis for restart




                                NWChem Input Module
                                -------------------


                                H2 in l_0 basis set
                                -------------------

 Scaling coordinates for geometry "geometry" by  1.889725989
 (inverse scale =  0.529177249)

 C1  symmetry detected

          ------
          auto-z
          ------


                             Geometry "geometry" -> ""
                             -------------------------

 Output coordinates in angstroms (scale by  1.889725989 to convert to a.u.)

  No.       Tag          Charge          X              Y              Z
 ---- ---------------- ---------- -------------- -------------- --------------
    1 O2V                  7.2000    -0.07632856    -0.30394548    -0.94821239
    2 H2V                  0.9000    -0.14558745    -0.66793027     1.01217576
    3 V2O                  0.8000     0.91950427    -0.69940130     0.08224192
    4 V2H                  0.1000    -1.03760939    -0.31287712     0.08849928
    5 O                    8.0000     0.32506733     2.30681575    -0.33384335
    6 H                    1.0000     0.23110326     1.78215773     1.58874240
    7 C                    6.0000    -0.02746693     0.05946266     0.21618939
    8 C                    6.0000     0.19013427     1.47477363     0.54938199

      Atomic Mass 
      ----------- 

      O2V               15.994910
      H2V                1.007825
      V2O               50.944000
      V2H               50.944000
      O                 15.994910
      H                  1.007825
      C                 12.000000


 Effective nuclear repulsion energy (a.u.)     106.6139692207

            Nuclear Dipole moment (a.u.) 
            ----------------------------
        X                 Y               Z
 ---------------- ---------------- ----------------
     7.1032797510    49.2495625956    -4.4032574679



                                Z-matrix (autoz)
                                -------- 

 Units are Angstrom for bonds and degrees for angles

      Type          Name      I     J     K     L     M      Value
      ----------- --------  ----- ----- ----- ----- ----- ----------
    1 Stretch                  1     3                       1.48657
    2 Stretch                  1     4                       1.41383
    3 Stretch                  1     7                       1.22077
    4 Stretch                  2     3                       1.41428
    5 Stretch                  2     4                       1.33227
    6 Stretch                  2     7                       1.08473
    7 Stretch                  3     4                       1.99493
    8 Stretch                  3     7                       1.22089
    9 Stretch                  3     8                       2.34035
   10 Stretch                  4     7                       1.08413
   11 Stretch                  4     8                       2.21708
   12 Stretch                  5     8                       1.22090
   13 Stretch                  6     8                       1.08464
   14 Stretch                  7     8                       1.47019
   15 Bend                     1     3     2                86.86869
   16 Bend                     1     3     4                45.04474
   17 Bend                     1     3     7                52.49093
   18 Bend                     1     3     8                71.48579
   19 Bend                     1     4     2                93.14298
   20 Bend                     1     4     3                48.07929
   21 Bend                     1     4     7                56.67972
   22 Bend                     1     4     8                76.75142
   23 Bend                     1     7     2               119.73205
   24 Bend                     1     7     3                75.01097
   25 Bend                     1     7     4                75.41142
   26 Bend                     1     7     8               120.57494
   27 Bend                     2     3     4                41.82395
   28 Bend                     2     3     7                47.92486
   29 Bend                     2     3     8                67.25562
   30 Bend                     2     4     3                45.06370
   31 Bend                     2     4     7                52.12157
   32 Bend                     2     4     8                72.54152
   33 Bend                     2     7     3                75.41387
   34 Bend                     2     7     4                75.79811
   35 Bend                     2     7     8               119.69301
   36 Bend                     3     1     4                86.87597
   37 Bend                     3     1     7                52.49810
   38 Bend                     3     2     4                93.11235
   39 Bend                     3     2     7                56.66126
   40 Bend                     3     4     7                32.09346
   41 Bend                     3     4     8                67.26984
   42 Bend                     3     7     4               119.75626
   43 Bend                     3     7     8               120.55904
   44 Bend                     3     8     4                51.83211
   45 Bend                     3     8     5               117.01802
   46 Bend                     3     8     6               116.28109
   47 Bend                     3     8     7                26.69318
   48 Bend                     4     1     7                47.90886
   49 Bend                     4     2     7                52.08033
   50 Bend                     4     3     7                28.15028
   51 Bend                     4     3     8                60.89806
   52 Bend                     4     7     8               119.68470
   53 Bend                     4     8     5               117.40758
   54 Bend                     4     8     6               116.65542
   55 Bend                     4     8     7                25.13892
   56 Bend                     5     8     6               119.73014
   57 Bend                     5     8     7               120.56178
   58 Bend                     6     8     7               119.70808
   59 Bend                     7     3     8                32.74778
   60 Bend                     7     4     8                35.17638
   61 Torsion                  1     3     2     4          -0.02898
   62 Torsion                  1     3     2     7         -39.45297
   63 Torsion                  1     3     4     2         179.95911
   64 Torsion                  1     3     4     7         -92.41899
   65 Torsion                  1     3     4     8         -92.41956
   66 Torsion                  1     3     7     2         126.88310
   67 Torsion                  1     3     7     4          63.03678
   68 Torsion                  1     3     7     8        -116.96415
   69 Torsion                  1     3     8     4          48.21215
   70 Torsion                  1     3     8     5         -56.64525
   71 Torsion                  1     3     8     6         152.58635
   72 Torsion                  1     3     8     7          48.21165
   73 Torsion                  1     4     2     3           0.03047
   74 Torsion                  1     4     2     7          42.29370
   75 Torsion                  1     4     3     2        -179.95911
   76 Torsion                  1     4     3     7          92.41899
   77 Torsion                  1     4     3     8          92.41956
   78 Torsion                  1     4     7     2        -126.47627
   79 Torsion                  1     4     7     3         -62.82989
   80 Torsion                  1     4     7     8         117.17104
   81 Torsion                  1     4     8     3         -49.79445
   82 Torsion                  1     4     8     5          54.28668
   83 Torsion                  1     4     8     6        -153.42117
   84 Torsion                  1     4     8     7         -49.79392
   85 Torsion                  1     7     2     3          62.84597
   86 Torsion                  1     7     2     4         -63.65693
   87 Torsion                  1     7     3     2        -126.88310
   88 Torsion                  1     7     3     4         -63.03678
   89 Torsion                  1     7     3     8         116.96415
   90 Torsion                  1     7     4     2         126.47627
   91 Torsion                  1     7     4     3          62.82989
   92 Torsion                  1     7     4     8        -117.17104
   93 Torsion                  1     7     8     3         -89.99879
   94 Torsion                  1     7     8     4          90.00215
   95 Torsion                  1     7     8     5           0.00027
   96 Torsion                  1     7     8     6         179.99964
   97 Torsion                  2     3     1     4           0.02731
   98 Torsion                  2     3     1     7          36.48402
   99 Torsion                  2     3     4     7          87.62190
  100 Torsion                  2     3     4     8          87.62133
  101 Torsion                  2     3     7     4         -63.84631
  102 Torsion                  2     3     7     8         116.15275
  103 Torsion                  2     3     8     4         -46.25694
  104 Torsion                  2     3     8     5        -151.11434
  105 Torsion                  2     3     8     6          58.11726
  106 Torsion                  2     3     8     7         -46.25745
  107 Torsion                  2     4     1     3          -0.02899
  108 Torsion                  2     4     1     7         -39.46799
  109 Torsion                  2     4     3     7         -87.62190
  110 Torsion                  2     4     3     8         -87.62133
  111 Torsion                  2     4     7     3          63.64638
  112 Torsion                  2     4     7     8        -116.35269
  113 Torsion                  2     4     8     3          47.85398
  114 Torsion                  2     4     8     5         151.93511
  115 Torsion                  2     4     8     6         -55.77274
  116 Torsion                  2     4     8     7          47.85451
  117 Torsion                  2     7     1     3         -63.05427
  118 Torsion                  2     7     1     4          63.85826
  119 Torsion                  2     7     3     4          63.84631
  120 Torsion                  2     7     3     8        -116.15275
  121 Torsion                  2     7     4     3         -63.64638
  122 Torsion                  2     7     4     8         116.35269
  123 Torsion                  2     7     8     3          90.00116
  124 Torsion                  2     7     8     4         -89.99791
  125 Torsion                  2     7     8     5        -179.99978
  126 Torsion                  2     7     8     6          -0.00041
  127 Torsion                  3     1     4     7          39.43900
  128 Torsion                  3     1     4     8          71.21067
  129 Torsion                  3     1     7     4        -126.91252
  130 Torsion                  3     1     7     8         116.94568
  131 Torsion                  3     2     4     7         -42.26323
  132 Torsion                  3     2     4     8         -75.02555
  133 Torsion                  3     2     7     4         126.50290
  134 Torsion                  3     2     7     8        -117.15397
  135 Torsion                  3     4     1     7         -39.43900
  136 Torsion                  3     4     2     7          42.26323
  137 Torsion                  3     4     7     8        -179.99907
  138 Torsion                  3     4     8     5         104.08113
  139 Torsion                  3     4     8     6        -103.62672
  140 Torsion                  3     4     8     7           0.00053
  141 Torsion                  3     7     1     4         126.91252
  142 Torsion                  3     7     2     4        -126.50290
  143 Torsion                  3     7     4     8         179.99907
  144 Torsion                  3     7     8     4        -179.99907
  145 Torsion                  3     7     8     5          89.99906
  146 Torsion                  3     7     8     6         -90.00157
  147 Torsion                  3     8     4     7          -0.00053
  148 Torsion                  3     8     7     4         179.99907
  149 Torsion                  4     1     3     7         -36.45671
  150 Torsion                  4     1     3     8         -67.01743
  151 Torsion                  4     1     7     8        -116.14180
  152 Torsion                  4     2     3     7          39.42399
  153 Torsion                  4     2     3     8          71.19346
  154 Torsion                  4     2     7     8         116.34312
  155 Torsion                  4     3     1     7          36.45671
  156 Torsion                  4     3     2     7         -39.42399
  157 Torsion                  4     3     7     8         179.99907
  158 Torsion                  4     3     8     5        -104.85740
  159 Torsion                  4     3     8     6         104.37420
  160 Torsion                  4     3     8     7          -0.00050
  161 Torsion                  4     7     3     8        -179.99907
  162 Torsion                  4     7     8     5         -90.00187
  163 Torsion                  4     7     8     6          89.99749
  164 Torsion                  4     8     3     7           0.00050
  165 Torsion                  5     8     3     7        -104.85689
  166 Torsion                  5     8     4     7         104.08059
  167 Torsion                  6     8     3     7         104.37471
  168 Torsion                  6     8     4     7        -103.62725
  169 Torsion                  7     1     3     8         -30.56072
  170 Torsion                  7     1     4     8          31.77167
  171 Torsion                  7     2     3     8          31.76947
  172 Torsion                  7     2     4     8         -32.76232
  173 Torsion                  7     3     4     8          -0.00058
  174 Torsion                  7     4     3     8           0.00058


            XYZ format geometry
            -------------------
     8
 geometry
 O2V                  -0.07632856    -0.30394548    -0.94821239
 H2V                  -0.14558745    -0.66793027     1.01217576
 V2O                   0.91950427    -0.69940130     0.08224192
 V2H                  -1.03760939    -0.31287712     0.08849928
 O                     0.32506733     2.30681575    -0.33384335
 H                     0.23110326     1.78215773     1.58874240
 C                    -0.02746693     0.05946266     0.21618939
 C                     0.19013427     1.47477363     0.54938199

 ==============================================================================
                                internuclear distances
 ------------------------------------------------------------------------------
       center one      |      center two      | atomic units |  angstroms
 ------------------------------------------------------------------------------
    3 V2O              |   1 O2V              |     2.80922  |     1.48657
    3 V2O              |   2 H2V              |     2.67260  |     1.41428
    4 V2H              |   1 O2V              |     2.67175  |     1.41383
    4 V2H              |   2 H2V              |     2.51763  |     1.33227
    4 V2H              |   3 V2O              |     3.76987  |     1.99493
    7 C                |   1 O2V              |     2.30692  |     1.22077
    7 C                |   2 H2V              |     2.04985  |     1.08473
    7 C                |   3 V2O              |     2.30715  |     1.22089
    7 C                |   4 V2H              |     2.04870  |     1.08413
    8 C                |   3 V2O              |     4.42262  |     2.34035
    8 C                |   4 V2H              |     4.18968  |     2.21708
    8 C                |   5 O                |     2.30716  |     1.22090
    8 C                |   6 H                |     2.04966  |     1.08464
    8 C                |   7 C                |     2.77827  |     1.47019
 ------------------------------------------------------------------------------
                         number of included internuclear distances:         14
 ==============================================================================



 ==============================================================================
                                 internuclear angles
 ------------------------------------------------------------------------------
        center 1       |       center 2       |       center 3       |  degrees
 ------------------------------------------------------------------------------
    3 V2O              |   1 O2V              |   4 V2H              |    86.88
    1 O2V              |   7 C                |   3 V2O              |    75.01
    1 O2V              |   7 C                |   4 V2H              |    75.41
    3 V2O              |   2 H2V              |   4 V2H              |    93.11
    2 H2V              |   7 C                |   3 V2O              |    75.41
    2 H2V              |   7 C                |   4 V2H              |    75.80
    1 O2V              |   3 V2O              |   2 H2V              |    86.87
    3 V2O              |   1 O2V              |   4 V2H              |    86.88
    3 V2O              |   7 C                |   1 O2V              |    75.01
    1 O2V              |   3 V2O              |   8 C                |    71.49
    3 V2O              |   2 H2V              |   4 V2H              |    93.11
    3 V2O              |   7 C                |   2 H2V              |    75.41
    2 H2V              |   3 V2O              |   8 C                |    67.26
    3 V2O              |   7 C                |   4 V2H              |   119.76
    3 V2O              |   4 V2H              |   8 C                |    67.27
    3 V2O              |   7 C                |   8 C                |   120.56
    1 O2V              |   4 V2H              |   2 H2V              |    93.14
    4 V2H              |   1 O2V              |   3 V2O              |    86.88
    4 V2H              |   7 C                |   1 O2V              |    75.41
    1 O2V              |   4 V2H              |   8 C                |    76.75
    4 V2H              |   2 H2V              |   3 V2O              |    93.11
    4 V2H              |   7 C                |   2 H2V              |    75.80
    2 H2V              |   4 V2H              |   8 C                |    72.54
    4 V2H              |   7 C                |   3 V2O              |   119.76
    3 V2O              |   4 V2H              |   8 C                |    67.27
    4 V2H              |   7 C                |   8 C                |   119.68
    1 O2V              |   7 C                |   2 H2V              |   119.73
    1 O2V              |   7 C                |   3 V2O              |    75.01
    1 O2V              |   7 C                |   4 V2H              |    75.41
    1 O2V              |   7 C                |   8 C                |   120.57
    2 H2V              |   7 C                |   3 V2O              |    75.41
    2 H2V              |   7 C                |   4 V2H              |    75.80
    2 H2V              |   7 C                |   8 C                |   119.69
    3 V2O              |   7 C                |   4 V2H              |   119.76
    3 V2O              |   7 C                |   8 C                |   120.56
    4 V2H              |   7 C                |   8 C                |   119.68
    8 C                |   4 V2H              |   3 V2O              |    67.27
    3 V2O              |   8 C                |   5 O                |   117.02
    3 V2O              |   8 C                |   6 H                |   116.28
    8 C                |   7 C                |   3 V2O              |   120.56
    4 V2H              |   8 C                |   5 O                |   117.41
    4 V2H              |   8 C                |   6 H                |   116.66
    8 C                |   7 C                |   4 V2H              |   119.68
    5 O                |   8 C                |   6 H                |   119.73
    5 O                |   8 C                |   7 C                |   120.56
    6 H                |   8 C                |   7 C                |   119.71
 ------------------------------------------------------------------------------
                            number of included internuclear angles:         46
 ==============================================================================



                      Basis "ao basis" -> "" (cartesian)
                      -----
  O2V (Oxygen)
  ------------
            Exponent  Coefficients 
       -------------- ---------------------------------------------------------
  1 S  1.16506469E+05  0.000040
  1 S  1.75043497E+04  0.000313
  1 S  3.99345132E+03  0.001634
  1 S  1.13300632E+03  0.006828
  1 S  3.69995696E+02  0.024124
  1 S  1.33620743E+02  0.072730
  1 S  5.20356436E+01  0.179344
  1 S  2.14619393E+01  0.330596

  2 S  8.98350513E+01  0.096469
  2 S  2.64280108E+01  0.941175

  3 S  9.28228246E+00  1.000000

  4 S  4.09477285E+00  1.000000

  5 S  1.32553491E+00  1.000000

  6 S  5.18772308E-01  1.000000

  7 S  1.97726765E-01  1.000000

  8 P  1.91152558E+02  0.002512
  8 P  4.52333567E+01  0.020039
  8 P  1.43534659E+01  0.093609
  8 P  5.24223718E+00  0.306181
  8 P  2.07924186E+00  0.678105

  9 P  8.42823714E-01  1.000000

 10 P  3.36176949E-01  1.000000

 11 P  1.28639980E-01  1.000000

 12 D  3.77500000E+00  1.000000

 13 D  1.30000000E+00  1.000000

 14 D  4.44000000E-01  1.000000

 15 F  2.66600000E+00  1.000000

 16 F  8.59000000E-01  1.000000

 17 G  1.84600000E+00  1.000000

  H2V (Hydrogen)
  --------------
            Exponent  Coefficients 
       -------------- ---------------------------------------------------------
  1 S  1.90691690E+02  0.000708
  1 S  2.86055320E+01  0.005468
  1 S  6.50959430E+00  0.027967
  1 S  1.84124550E+00  0.107645

  2 S  5.98537250E-01  1.000000

  3 S  2.13976240E-01  1.000000

  4 S  8.03162860E-02  1.000000

  5 P  2.29200000E+00  1.000000

  6 P  8.38000000E-01  1.000000

  7 P  2.92000000E-01  1.000000

  8 D  2.06200000E+00  1.000000

  9 D  6.62000000E-01  1.000000

 10 F  1.39700000E+00  1.000000

  V2O (Vanadium)
  --------------
            Exponent  Coefficients 
       -------------- ---------------------------------------------------------
  1 S  1.16506469E+05  0.000040
  1 S  1.75043497E+04  0.000313
  1 S  3.99345132E+03  0.001634
  1 S  1.13300632E+03  0.006828
  1 S  3.69995696E+02  0.024124
  1 S  1.33620743E+02  0.072730
  1 S  5.20356436E+01  0.179344
  1 S  2.14619393E+01  0.330596

  2 S  8.98350513E+01  0.096469
  2 S  2.64280108E+01  0.941175

  3 S  9.28228246E+00  1.000000

  4 S  4.09477285E+00  1.000000

  5 S  1.32553491E+00  1.000000

  6 S  5.18772308E-01  1.000000

  7 S  1.97726765E-01  1.000000

  8 P  1.91152558E+02  0.002512
  8 P  4.52333567E+01  0.020039
  8 P  1.43534659E+01  0.093609
  8 P  5.24223718E+00  0.306181
  8 P  2.07924186E+00  0.678105

  9 P  8.42823714E-01  1.000000

 10 P  3.36176949E-01  1.000000

 11 P  1.28639980E-01  1.000000

 12 D  3.77500000E+00  1.000000

 13 D  1.30000000E+00  1.000000

 14 D  4.44000000E-01  1.000000

 15 F  2.66600000E+00  1.000000

 16 F  8.59000000E-01  1.000000

 17 G  1.84600000E+00  1.000000

  V2H (Vanadium)
  --------------
            Exponent  Coefficients 
       -------------- ---------------------------------------------------------
  1 S  1.90691690E+02  0.000708
  1 S  2.86055320E+01  0.005468
  1 S  6.50959430E+00  0.027967
  1 S  1.84124550E+00  0.107645

  2 S  5.98537250E-01  1.000000

  3 S  2.13976240E-01  1.000000

  4 S  8.03162860E-02  1.000000

  5 P  2.29200000E+00  1.000000

  6 P  8.38000000E-01  1.000000

  7 P  2.92000000E-01  1.000000

  8 D  2.06200000E+00  1.000000

  9 D  6.62000000E-01  1.000000

 10 F  1.39700000E+00  1.000000

  O (Oxygen)
  ----------
            Exponent  Coefficients 
       -------------- ---------------------------------------------------------
  1 S  1.16506469E+05  0.000040
  1 S  1.75043497E+04  0.000313
  1 S  3.99345132E+03  0.001634
  1 S  1.13300632E+03  0.006828
  1 S  3.69995696E+02  0.024124
  1 S  1.33620743E+02  0.072730
  1 S  5.20356436E+01  0.179344
  1 S  2.14619393E+01  0.330596

  2 S  8.98350513E+01  0.096469
  2 S  2.64280108E+01  0.941175

  3 S  9.28228246E+00  1.000000

  4 S  4.09477285E+00  1.000000

  5 S  1.32553491E+00  1.000000

  6 S  5.18772308E-01  1.000000

  7 S  1.97726765E-01  1.000000

  8 P  1.91152558E+02  0.002512
  8 P  4.52333567E+01  0.020039
  8 P  1.43534659E+01  0.093609
  8 P  5.24223718E+00  0.306181
  8 P  2.07924186E+00  0.678105

  9 P  8.42823714E-01  1.000000

 10 P  3.36176949E-01  1.000000

 11 P  1.28639980E-01  1.000000

 12 D  3.77500000E+00  1.000000

 13 D  1.30000000E+00  1.000000

 14 D  4.44000000E-01  1.000000

 15 F  2.66600000E+00  1.000000

 16 F  8.59000000E-01  1.000000

 17 G  1.84600000E+00  1.000000

  H (Hydrogen)
  ------------
            Exponent  Coefficients 
       -------------- ---------------------------------------------------------
  1 S  1.90691690E+02  0.000708
  1 S  2.86055320E+01  0.005468
  1 S  6.50959430E+00  0.027967
  1 S  1.84124550E+00  0.107645

  2 S  5.98537250E-01  1.000000

  3 S  2.13976240E-01  1.000000

  4 S  8.03162860E-02  1.000000

  5 P  2.29200000E+00  1.000000

  6 P  8.38000000E-01  1.000000

  7 P  2.92000000E-01  1.000000

  8 D  2.06200000E+00  1.000000

  9 D  6.62000000E-01  1.000000

 10 F  1.39700000E+00  1.000000

  C (Carbon)
  ----------
            Exponent  Coefficients 
       -------------- ---------------------------------------------------------
  1 S  6.70250710E+04  0.000039
  1 S  1.00399865E+04  0.000301
  1 S  2.28493169E+03  0.001579
  1 S  6.47141221E+02  0.006609
  1 S  2.11094723E+02  0.023367
  1 S  7.61776439E+01  0.070421
  1 S  2.96338392E+01  0.173603
  1 S  1.21877851E+01  0.322923

  2 S  5.30260063E+01  0.074897
  2 S  1.52585028E+01  0.761362

  3 S  5.24039575E+00  1.000000

  4 S  2.29050224E+00  1.000000

  5 S  6.96732830E-01  1.000000

  6 S  2.75993374E-01  1.000000

  7 S  1.07398844E-01  1.000000

  8 P  1.05125551E+02  0.000846
  8 P  2.48844611E+01  0.006627
  8 P  7.86372308E+00  0.030120
  8 P  2.84070018E+00  0.099951
  8 P  1.12271373E+00  0.238263

  9 P  4.60507256E-01  1.000000

 10 P  1.89375309E-01  1.000000

 11 P  7.59837916E-02  1.000000

 12 D  1.84800000E+00  1.000000

 13 D  6.49000000E-01  1.000000

 14 D  2.28000000E-01  1.000000

 15 F  1.41900000E+00  1.000000

 16 F  4.85000000E-01  1.000000

 17 G  1.01100000E+00  1.000000



 Summary of "ao basis" -> "" (cartesian)
 ------------------------------------------------------------------------------
       Tag                 Description            Shells   Functions and Types
 ---------------- ------------------------------  ------  ---------------------
 O2V                       Def2-QZVPP               17       72   7s4p3d2f1g
 H2V                       Def2-QZVPP               10       35   4s3p2d1f
 V2O                       Def2-QZVPP               17       72   7s4p3d2f1g
 V2H                       Def2-QZVPP               10       35   4s3p2d1f
 O                         Def2-QZVPP               17       72   7s4p3d2f1g
 H                         Def2-QZVPP               10       35   4s3p2d1f
 C                         Def2-QZVPP               17       72   7s4p3d2f1g


  pbe96 is a nonlocal functional; adding pw91lda local functional. 

                                 NWChem DFT Module
                                 -----------------


                                H2 in l_0 basis set




 Summary of "ao basis" -> "ao basis" (cartesian)
 ------------------------------------------------------------------------------
       Tag                 Description            Shells   Functions and Types
 ---------------- ------------------------------  ------  ---------------------
 O2V                       Def2-QZVPP               17       72   7s4p3d2f1g
 H2V                       Def2-QZVPP               10       35   4s3p2d1f
 V2O                       Def2-QZVPP               17       72   7s4p3d2f1g
 V2H                       Def2-QZVPP               10       35   4s3p2d1f
 O                         Def2-QZVPP               17       72   7s4p3d2f1g
 H                         Def2-QZVPP               10       35   4s3p2d1f
 C                         Def2-QZVPP               17       72   7s4p3d2f1g


  Caching 1-el integrals 

            General Information
            -------------------
          SCF calculation type: DFT
          Wavefunction type:  closed shell.
          No. of atoms     :     8
          No. of electrons :    30
           Alpha electrons :    15
            Beta electrons :    15
          Charge           :     0
          Spin multiplicity:     1
          Use of symmetry is: off; symmetry adaption is: off
          Maximum number of iterations: 500
          AO basis - number of functions:   465
                     number of shells:   115
          Convergence on energy requested: 1.00D-06
          Convergence on density requested: 1.00D-05
          Convergence on gradient requested: 5.00D-04

              XC Information
              --------------
          PerdewBurkeErnzerhof Exchange Functional  1.000          
            Perdew 1991 LDA Correlation Functional  1.000 local    
           PerdewBurkeErnz. Correlation Functional  1.000 non-local

             Grid Information
             ----------------
          Grid used for XC integration:  medium    
          Radial quadrature: Mura-Knowles        
          Angular quadrature: Lebedev. 
          Tag              B.-S. Rad. Rad. Pts. Rad. Cut. Ang. Pts.
          ---              ---------- --------- --------- ---------
          O2V                 0.60       49          11.0       434
          H2V                 0.35       45          10.0       434
          V2O                 1.35      112          10.0       590
          V2H                 1.35      112          10.0       590
          O                   0.60       49          11.0       434
          H                   0.35       45          10.0       434
          C                   0.70       49           9.0       434
          Grid pruning is: on 
          Number of quadrature shells:   510
          Spatial weights used:  Erf1

          Convergence Information
          -----------------------
          Convergence aids based upon iterative change in 
          total energy or number of iterations. 
          Levelshifting, if invoked, occurs when the 
          HOMO/LUMO gap drops below (HL_TOL): 1.00D-02
          DIIS, if invoked, will attempt to extrapolate 
          using up to (NFOCK): 10 stored Fock matrices.

                    Damping( 0%)  Levelshifting(0.5)       DIIS
                  --------------- ------------------- ---------------
          dE  on:    start            ASAP                start   
          dE off:    2 iters        500 iters           500 iters 


      Screening Tolerance Information
      -------------------------------
          Density screening/tol_rho: 1.00D-10
          AO Gaussian exp screening on grid/accAOfunc:  14
          CD Gaussian exp screening on grid/accCDfunc:  20
          XC Gaussian exp screening on grid/accXCfunc:  20
          Schwarz screening/accCoul: 1.00D-08


 Loading old vectors from job with title :





 ----------------------------------------------
         Quadratically convergent ROKS

 Convergence threshold     :          5.000E-04
 Maximum no. of iterations :          500
 Final Fock-matrix accuracy:          1.000E-08
 ----------------------------------------------


 Integral file          = ./l_0.05.aoints.0
 Record size in doubles =    65536    No. of integs per rec  =    32766
 Max. records in memory =        0    Max. records in file   =  1251405
 No. of bits per label  =       16    No. of bits per value  =       64


 #quartets = 1.666D+07 #integrals = 3.667D+09 #direct =  0.0% #cached =100.0%


 Grid_pts file          = ./l_0.05.gridpts.0
 Record size in doubles =  12289        No. of grid_pts per rec  =   3070
 Max. records in memory =    109        Max. recs in file   =   6106518


              iter       energy          gnorm     gmax       time
             ----- ------------------- --------- --------- --------
                 1     -210.8142107484  1.01D+01  6.75D+00    521.4
                 2     -211.1209982225  8.20D-01  2.10D-01    667.5
                 3     -211.1364239339  1.26D+00  7.45D-01    959.3
                 4     -211.1428269928  1.06D-01  5.46D-02   1105.5
                 5     -211.1444960311  1.94D-02  5.92D-03   1537.2
                 6     -211.1445390072  4.34D-03  1.04D-03   2161.8
                 7     -211.1445408480  9.65D-04  2.25D-04   2783.8
                 8     -211.1445409408  2.32D-04  4.43D-05   3212.7


         Total DFT energy =     -211.144540940769
      One electron energy =     -497.740136457276
           Coulomb energy =      207.359290829907
    Exchange-Corr. energy =      -27.377664534062
 Nuclear repulsion energy =      106.613969220661

 Numeric. integr. density =       29.999991750203

     Total iterative time =   3209.7s



                       DFT Final Molecular Orbital Analysis
                       ------------------------------------

 Vector    5  Occ=2.000000D+00  E=-9.806382D-01
              MO Center=  2.7D-01,  1.9D+00, -7.4D-02, r^2= 7.3D-01
   Bfn.  Coefficient  Atom+Function         Bfn.  Coefficient  Atom+Function  
  ----- ------------  ---------------      ----- ------------  ---------------
   220      0.319223  5 O  s                219      0.225435  5 O  s          
   398      0.156652  8 C  s          

 Vector    6  Occ=2.000000D+00  E=-8.981648D-01
              MO Center=  2.6D-02, -4.1D-02, -3.8D-01, r^2= 9.7D-01
   Bfn.  Coefficient  Atom+Function         Bfn.  Coefficient  Atom+Function  
  ----- ------------  ---------------      ----- ------------  ---------------
     6      0.234755  1 O  s                327      0.177497  7 C  s          
   326      0.169558  7 C  s          

 Vector    7  Occ=2.000000D+00  E=-6.426146D-01
              MO Center=  1.0D-01,  7.9D-01,  4.9D-01, r^2= 1.5D+00
   Bfn.  Coefficient  Atom+Function         Bfn.  Coefficient  Atom+Function  
  ----- ------------  ---------------      ----- ------------  ---------------
   399      0.251008  8 C  s                327      0.190237  7 C  s          
   398      0.164594  8 C  s                  6     -0.155334  1 O  s          

 Vector    8  Occ=2.000000D+00  E=-5.193715D-01
              MO Center=  9.7D-02,  1.3D-01,  2.7D-01, r^2= 2.1D+00
   Bfn.  Coefficient  Atom+Function         Bfn.  Coefficient  Atom+Function  
  ----- ------------  ---------------      ----- ------------  ---------------
   399      0.161317  8 C  s          

 Vector    9  Occ=2.000000D+00  E=-4.862360D-01
              MO Center=  1.8D-01,  1.4D+00,  5.4D-01, r^2= 1.7D+00
   Bfn.  Coefficient  Atom+Function         Bfn.  Coefficient  Atom+Function  
  ----- ------------  ---------------      ----- ------------  ---------------
   403      0.168541  8 C  pz               288      0.153840  6 H  s          
   402      0.150812  8 C  py         

 Vector   10  Occ=2.000000D+00  E=-4.353743D-01
              MO Center=  3.0D-02,  4.0D-01, -4.9D-02, r^2= 2.1D+00
   Bfn.  Coefficient  Atom+Function         Bfn.  Coefficient  Atom+Function  
  ----- ------------  ---------------      ----- ------------  ---------------
   329      0.197213  7 C  px         

 Vector   11  Occ=2.000000D+00  E=-4.011042D-01
              MO Center=  3.1D-01,  2.0D+00, -2.1D-01, r^2= 1.7D+00
   Bfn.  Coefficient  Atom+Function         Bfn.  Coefficient  Atom+Function  
  ----- ------------  ---------------      ----- ------------  ---------------
   224     -0.194002  5 O  pz               223      0.190053  5 O  py         
   227     -0.171849  5 O  pz               226      0.168535  5 O  py         
   220      0.164594  5 O  s                221      0.158659  5 O  s          

 Vector   12  Occ=2.000000D+00  E=-3.568409D-01
              MO Center=  2.0D-01,  1.5D+00, -1.3D-01, r^2= 2.0D+00
   Bfn.  Coefficient  Atom+Function         Bfn.  Coefficient  Atom+Function  
  ----- ------------  ---------------      ----- ------------  ---------------
   222      0.260455  5 O  px               225      0.235752  5 O  px         
   228      0.200812  5 O  px               401      0.163982  8 C  px         

 Vector   13  Occ=2.000000D+00  E=-3.403470D-01
              MO Center= -4.1D-02, -2.2D-01, -9.2D-01, r^2= 1.4D+00
   Bfn.  Coefficient  Atom+Function         Bfn.  Coefficient  Atom+Function  
  ----- ------------  ---------------      ----- ------------  ---------------
     6      0.252328  1 O  s                 13     -0.241889  1 O  pz         
    10     -0.196484  1 O  pz                16     -0.172486  1 O  pz         
   331      0.172303  7 C  pz                 7      0.153049  1 O  s          

 Vector   14  Occ=2.000000D+00  E=-2.430982D-01
              MO Center=  2.5D-01,  1.8D+00, -1.5D-01, r^2= 1.9D+00
   Bfn.  Coefficient  Atom+Function         Bfn.  Coefficient  Atom+Function  
  ----- ------------  ---------------      ----- ------------  ---------------
   328      0.359034  7 C  s                400     -0.241050  8 C  s          
   224      0.239096  5 O  pz               223      0.223855  5 O  py         
   227      0.215323  5 O  pz               226      0.201927  5 O  py         
   230      0.191521  5 O  pz               229      0.171611  5 O  py         
   290     -0.168548  6 H  s          

 Vector   15  Occ=2.000000D+00  E=-1.880889D-01
              MO Center= -1.8D-02,  1.1D-03, -4.3D-01, r^2= 2.2D+00
   Bfn.  Coefficient  Atom+Function         Bfn.  Coefficient  Atom+Function  
  ----- ------------  ---------------      ----- ------------  ---------------
   400      0.536208  8 C  s                 76     -0.350461  2 H  s          
    15     -0.282294  1 O  py                12     -0.268332  1 O  py         
   339     -0.236214  7 C  py                 9     -0.223878  1 O  py         
   328      0.196165  7 C  s                 75     -0.194690  2 H  s          
    18     -0.172195  1 O  py               399      0.161630  8 C  s          

 Vector   16  Occ=0.000000D+00  E=-1.526077D-01
              MO Center=  9.7D-02,  6.2D-01, -1.7D-01, r^2= 2.6D+00
   Bfn.  Coefficient  Atom+Function         Bfn.  Coefficient  Atom+Function  
  ----- ------------  ---------------      ----- ------------  ---------------
    11      0.225298  1 O  px                17      0.223583  1 O  px         
    14      0.221687  1 O  px               328      0.191424  7 C  s          
     8      0.188555  1 O  px               338     -0.182438  7 C  px         
   222      0.177952  5 O  px               231      0.177580  5 O  px         
   407     -0.176190  8 C  px               225      0.154978  5 O  px         

 Vector   17  Occ=0.000000D+00  E=-7.262955D-02
              MO Center=  4.3D-01,  3.2D-01,  8.3D-02, r^2= 3.4D+00
   Bfn.  Coefficient  Atom+Function         Bfn.  Coefficient  Atom+Function  
  ----- ------------  ---------------      ----- ------------  ---------------
   338      0.551419  7 C  px               183      0.490942  4 V  s          
   182     -0.445402  4 V  s                399      0.348449  8 C  s          
   328     -0.315145  7 C  s                353      0.302303  7 C  dxx        
   410     -0.295274  8 C  px               336     -0.289613  7 C  py         
   340     -0.259309  7 C  pz               407     -0.256278  8 C  px         

 Vector   18  Occ=0.000000D+00  E=-1.274059D-02
              MO Center=  3.7D-01, -3.1D-01,  7.4D-01, r^2= 5.6D+00
   Bfn.  Coefficient  Atom+Function         Bfn.  Coefficient  Atom+Function  
  ----- ------------  ---------------      ----- ------------  ---------------
   328      3.449981  7 C  s                 76     -1.846723  2 H  s          
   336      1.491132  7 C  py               183     -1.204841  4 V  s          
    75      1.148907  2 H  s                399     -1.135816  8 C  s          
   353     -1.071485  7 C  dxx              114      1.057500  3 V  s          
   182      0.866748  4 V  s                358     -0.867116  7 C  dzz        

 Vector   19  Occ=0.000000D+00  E= 1.914731D-02
              MO Center=  1.7D-01,  5.1D-01,  1.3D+00, r^2= 5.7D+00
   Bfn.  Coefficient  Atom+Function         Bfn.  Coefficient  Atom+Function  
  ----- ------------  ---------------      ----- ------------  ---------------
   400      3.436404  8 C  s                328      2.858937  7 C  s          
   290     -1.961497  6 H  s                 76     -1.347448  2 H  s          
   114     -1.158025  3 V  s                  7     -1.119502  1 O  s          
   430     -0.962219  8 C  dzz              289      0.939304  6 H  s          
   221     -0.933990  5 O  s                428     -0.761044  8 C  dyy        

 Vector   20  Occ=0.000000D+00  E= 3.212436D-02
              MO Center=  1.7D-01,  6.9D-01,  1.5D+00, r^2= 7.7D+00
   Bfn.  Coefficient  Atom+Function         Bfn.  Coefficient  Atom+Function  
  ----- ------------  ---------------      ----- ------------  ---------------
   328      5.747788  7 C  s                400     -5.477184  8 C  s          
    76     -2.300617  2 H  s                290      2.262055  6 H  s          
   289     -2.086521  6 H  s                 75      1.603024  2 H  s          
   430      1.557688  8 C  dzz                7     -1.331706  1 O  s          
   356     -1.298610  7 C  dyy              337     -1.288785  7 C  pz         

 Vector   21  Occ=0.000000D+00  E= 5.444818D-02
              MO Center= -1.0D+00,  1.7D-01,  3.3D-01, r^2= 6.6D+00
   Bfn.  Coefficient  Atom+Function         Bfn.  Coefficient  Atom+Function  
  ----- ------------  ---------------      ----- ------------  ---------------
   328      4.690990  7 C  s                183     -2.517115  4 V  s          
   114     -2.108756  3 V  s                182      1.785137  4 V  s          
   400     -1.699711  8 C  s                221      1.295914  5 O  s          
   336      1.164336  7 C  py               335      1.100479  7 C  px         
   353     -1.071771  7 C  dxx              399     -0.977946  8 C  s          

 Vector   22  Occ=0.000000D+00  E= 7.908544D-02
              MO Center= -3.5D-02,  8.8D-01,  8.3D-01, r^2= 7.3D+00
   Bfn.  Coefficient  Atom+Function         Bfn.  Coefficient  Atom+Function  
  ----- ------------  ---------------      ----- ------------  ---------------
   328      4.861661  7 C  s                183     -2.187468  4 V  s          
   221     -1.843568  5 O  s                  7     -1.789895  1 O  s          
   339     -1.793148  7 C  py               411      1.410755  8 C  py         
   338     -1.108430  7 C  px                75     -1.061591  2 H  s          
   114     -0.887337  3 V  s                353     -0.822575  7 C  dxx        

 Vector   23  Occ=0.000000D+00  E= 9.627523D-02
              MO Center=  6.4D-01,  9.8D-01,  4.4D-01, r^2= 7.9D+00
   Bfn.  Coefficient  Atom+Function         Bfn.  Coefficient  Atom+Function  
  ----- ------------  ---------------      ----- ------------  ---------------
   339      3.915988  7 C  py                76      2.712015  2 H  s          
   400     -2.656688  8 C  s                221     -2.448910  5 O  s          
   290     -2.192578  6 H  s                411      2.108045  8 C  py         
   336     -2.044228  7 C  py               328      1.696933  7 C  s          
   338      1.579742  7 C  px                75     -1.558722  2 H  s          

 Vector   24  Occ=0.000000D+00  E= 1.234071D-01
              MO Center= -2.4D-01,  1.2D+00,  5.6D-01, r^2= 8.3D+00
   Bfn.  Coefficient  Atom+Function         Bfn.  Coefficient  Atom+Function  
  ----- ------------  ---------------      ----- ------------  ---------------
   328      4.368178  7 C  s                400     -2.919230  8 C  s          
   410     -1.883760  8 C  px               182      1.855338  4 V  s          
   338      1.485321  7 C  px               114     -1.475065  3 V  s          
   339      1.381640  7 C  py               411      1.377241  8 C  py         
   354     -1.281698  7 C  dxy              335      1.275274  7 C  px         

 Vector   25  Occ=0.000000D+00  E= 1.547279D-01
              MO Center=  4.7D-01,  5.8D-01, -6.8D-01, r^2= 8.1D+00
   Bfn.  Coefficient  Atom+Function         Bfn.  Coefficient  Atom+Function  
  ----- ------------  ---------------      ----- ------------  ---------------
   328      6.182108  7 C  s                  7      3.866562  1 O  s          
   290     -3.439845  6 H  s                411      2.724228  8 C  py         
   412      2.500854  8 C  pz               408     -2.471104  8 C  py         
   356     -2.369319  7 C  dyy              221      1.977466  5 O  s          
   289      1.692263  6 H  s                  6      1.401592  1 O  s          

 Vector   26  Occ=0.000000D+00  E= 1.711420D-01
              MO Center=  2.3D-02,  5.8D-01,  1.7D-01, r^2= 8.5D+00
   Bfn.  Coefficient  Atom+Function         Bfn.  Coefficient  Atom+Function  
  ----- ------------  ---------------      ----- ------------  ---------------
   114      5.147086  3 V  s                183     -4.714759  4 V  s          
   338     -4.341962  7 C  px               328     -2.999361  7 C  s          
   182      2.950861  4 V  s                 76      2.895149  2 H  s          
   290      2.565784  6 H  s                411     -2.267512  8 C  py         
   221     -2.006736  5 O  s                412     -1.923650  8 C  pz         

 Vector   27  Occ=0.000000D+00  E= 1.969761D-01
              MO Center=  1.8D-01, -7.8D-02,  7.7D-01, r^2= 7.5D+00
   Bfn.  Coefficient  Atom+Function         Bfn.  Coefficient  Atom+Function  
  ----- ------------  ---------------      ----- ------------  ---------------
   400      7.623767  8 C  s                 76     -6.871000  2 H  s          
    75      5.078602  2 H  s                339     -4.385637  7 C  py         
   290      4.052118  6 H  s                328     -3.673302  7 C  s          
   412     -3.667596  8 C  pz               289     -3.562831  6 H  s          
   221     -3.094657  5 O  s                411     -3.086001  8 C  py         

 Vector   28  Occ=0.000000D+00  E= 2.007621D-01
              MO Center=  1.1D-01,  5.7D-01, -3.5D-01, r^2= 8.8D+00
   Bfn.  Coefficient  Atom+Function         Bfn.  Coefficient  Atom+Function  
  ----- ------------  ---------------      ----- ------------  ---------------
   339      6.996190  7 C  py               412      7.006172  8 C  pz         
    76      6.418571  2 H  s                290     -6.275357  6 H  s          
   340     -5.614296  7 C  pz                 7     -4.440714  1 O  s          
   221      4.124324  5 O  s                400     -3.560166  8 C  s          
   411      2.441016  8 C  py               338      1.918166  7 C  px         

 Vector   29  Occ=0.000000D+00  E= 2.155001D-01
              MO Center=  8.4D-02,  1.1D+00,  4.8D-02, r^2= 7.9D+00
   Bfn.  Coefficient  Atom+Function         Bfn.  Coefficient  Atom+Function  
  ----- ------------  ---------------      ----- ------------  ---------------
   400     11.267455  8 C  s                183     -3.814197  4 V  s          
    75      2.993854  2 H  s                399      2.825959  8 C  s          
   114      2.727900  3 V  s                182      2.703935  4 V  s          
   428     -2.430238  8 C  dyy              221      2.369452  5 O  s          
   425     -2.270222  8 C  dxx              338     -2.089862  7 C  px         

 Vector   30  Occ=0.000000D+00  E= 2.337155D-01
              MO Center=  4.2D-01,  1.4D-01,  3.5D-01, r^2= 7.3D+00
   Bfn.  Coefficient  Atom+Function         Bfn.  Coefficient  Atom+Function  
  ----- ------------  ---------------      ----- ------------  ---------------
   328     12.948525  7 C  s                  7     -5.204496  1 O  s          
   114     -3.789411  3 V  s                399      3.589149  8 C  s          
   182     -3.321662  4 V  s                400      2.789965  8 C  s          
   336     -2.408263  7 C  py               337     -2.215195  7 C  pz         
   290     -2.192488  6 H  s                 76     -1.988308  2 H  s          

 Vector   31  Occ=0.000000D+00  E= 2.489897D-01
              MO Center=  1.5D-01,  1.2D+00,  1.1D+00, r^2= 7.0D+00
   Bfn.  Coefficient  Atom+Function         Bfn.  Coefficient  Atom+Function  
  ----- ------------  ---------------      ----- ------------  ---------------
   328      7.573844  7 C  s                289      5.266124  6 H  s          
   400      4.903797  8 C  s                336      4.262886  7 C  py         
   399     -3.509317  8 C  s                290     -3.077092  6 H  s          
   430     -2.665973  8 C  dzz              221     -2.587419  5 O  s          
   408      2.562800  8 C  py                76     -2.484183  2 H  s          

 Vector   32  Occ=0.000000D+00  E= 2.575351D-01
              MO Center= -1.4D-01, -1.5D-01,  5.1D-01, r^2= 6.9D+00
   Bfn.  Coefficient  Atom+Function         Bfn.  Coefficient  Atom+Function  
  ----- ------------  ---------------      ----- ------------  ---------------
   400     19.110079  8 C  s                328    -11.616544  7 C  s          
    75     -6.426456  2 H  s                339     -4.858334  7 C  py         
   221     -4.318962  5 O  s                357     -3.726688  7 C  dyz        
   337      3.634993  7 C  pz               183     -3.251840  4 V  s          
     7      2.916423  1 O  s                425     -2.813266  8 C  dxx        

 Vector   33  Occ=0.000000D+00  E= 2.712490D-01
              MO Center=  3.3D-01,  3.7D-01, -3.3D-01, r^2= 7.7D+00
   Bfn.  Coefficient  Atom+Function         Bfn.  Coefficient  Atom+Function  
  ----- ------------  ---------------      ----- ------------  ---------------
   328      7.549443  7 C  s                  7     -5.275426  1 O  s          
   114      3.950425  3 V  s                400     -3.368995  8 C  s          
   289     -2.298130  6 H  s                337     -2.232249  7 C  pz         
    76     -2.220840  2 H  s                339     -2.207031  7 C  py         
   356     -2.147772  7 C  dyy              430      2.103912  8 C  dzz        

 Vector   34  Occ=0.000000D+00  E= 2.940901D-01
              MO Center= -8.3D-02,  8.7D-01,  4.2D-01, r^2= 7.2D+00
   Bfn.  Coefficient  Atom+Function         Bfn.  Coefficient  Atom+Function  
  ----- ------------  ---------------      ----- ------------  ---------------
   328     10.953042  7 C  s                400     -4.849484  8 C  s          
   290      4.464531  6 H  s                289     -4.030025  6 H  s          
   336      3.852427  7 C  py               183     -3.402189  4 V  s          
    75      3.156414  2 H  s                358     -3.058062  7 C  dzz        
   412     -3.038814  8 C  pz               409      2.975078  8 C  pz         

 Vector   35  Occ=0.000000D+00  E= 2.973979D-01
              MO Center=  3.2D-01,  7.8D-01,  3.9D-01, r^2= 6.4D+00
   Bfn.  Coefficient  Atom+Function         Bfn.  Coefficient  Atom+Function  
  ----- ------------  ---------------      ----- ------------  ---------------
   289     -4.651967  6 H  s                 75      4.423611  2 H  s          
   328     -4.069764  7 C  s                408      3.505063  8 C  py         
   337     -2.998480  7 C  pz               357      2.934069  7 C  dyz        
   290      2.765626  6 H  s                114     -2.519540  3 V  s          
   353      2.459828  7 C  dxx               76     -2.026386  2 H  s          

 Vector   36  Occ=0.000000D+00  E= 3.071532D-01
              MO Center=  5.3D-01,  1.1D+00, -1.4D-01, r^2= 6.8D+00
   Bfn.  Coefficient  Atom+Function         Bfn.  Coefficient  Atom+Function  
  ----- ------------  ---------------      ----- ------------  ---------------
   400     -6.418720  8 C  s                328      6.338126  7 C  s          
   336      4.542854  7 C  py               114      2.660649  3 V  s          
   408      1.998828  8 C  py               358     -1.929018  7 C  dzz        
   338      1.833338  7 C  px               409      1.788103  8 C  pz         
   353     -1.692251  7 C  dxx              124     -1.643594  3 V  px         

 Vector   37  Occ=0.000000D+00  E= 3.305143D-01
              MO Center=  2.0D-01, -1.3D-01,  9.7D-02, r^2= 7.5D+00
   Bfn.  Coefficient  Atom+Function         Bfn.  Coefficient  Atom+Function  
  ----- ------------  ---------------      ----- ------------  ---------------
   328     12.508976  7 C  s                183     -6.814327  4 V  s          
   336     -6.225289  7 C  py               114     -5.250636  3 V  s          
   338     -5.213851  7 C  px                75     -3.653616  2 H  s          
   408     -3.376734  8 C  py               339     -3.150447  7 C  py         
   400      3.009777  8 C  s                335      2.898214  7 C  px         

 Vector   38  Occ=0.000000D+00  E= 3.528965D-01
              MO Center= -8.5D-02,  2.0D-01, -5.7D-01, r^2= 6.5D+00
   Bfn.  Coefficient  Atom+Function         Bfn.  Coefficient  Atom+Function  
  ----- ------------  ---------------      ----- ------------  ---------------
   328     14.528835  7 C  s                114     -5.365803  3 V  s          
   400     -4.773921  8 C  s                 75     -4.304324  2 H  s          
   182      4.003842  4 V  s                335      2.736807  7 C  px         
   353     -2.538276  7 C  dxx              336     -1.949043  7 C  py         
    17      1.929698  1 O  px               357     -1.687561  7 C  dyz        

 Vector   39  Occ=0.000000D+00  E= 3.567394D-01
              MO Center= -3.7D-01,  5.5D-01, -2.5D-01, r^2= 7.9D+00
   Bfn.  Coefficient  Atom+Function         Bfn.  Coefficient  Atom+Function  
  ----- ------------  ---------------      ----- ------------  ---------------
   412      7.620408  8 C  pz               340     -6.394336  7 C  pz         
    76      6.172440  2 H  s                328      5.588973  7 C  s          
   339      5.529733  7 C  py               290     -5.209556  6 H  s          
   182      4.823760  4 V  s                335      4.087016  7 C  px         
   114     -3.917899  3 V  s                400     -3.914246  8 C  s          

 Vector   40  Occ=0.000000D+00  E= 3.690422D-01
              MO Center=  1.6D-01,  1.2D+00, -2.3D-02, r^2= 8.0D+00
   Bfn.  Coefficient  Atom+Function         Bfn.  Coefficient  Atom+Function  
  ----- ------------  ---------------      ----- ------------  ---------------
   400     12.009713  8 C  s                412      7.504339  8 C  pz         
   328     -6.041746  7 C  s                290     -6.008329  6 H  s          
   340     -5.063449  7 C  pz               182     -4.028295  4 V  s          
   221     -3.872972  5 O  s                289     -3.751630  6 H  s          
   399      3.433191  8 C  s                233     -3.176434  5 O  pz         

 Vector   41  Occ=0.000000D+00  E= 3.965415D-01
              MO Center=  1.3D-01,  5.1D-01, -1.8D-01, r^2= 7.2D+00
   Bfn.  Coefficient  Atom+Function         Bfn.  Coefficient  Atom+Function  
  ----- ------------  ---------------      ----- ------------  ---------------
   340      5.484792  7 C  pz               338      4.423724  7 C  px         
   183      3.956843  4 V  s                328      3.452905  7 C  s          
    76     -3.245917  2 H  s                400     -2.463711  8 C  s          
   411      2.412300  8 C  py                17     -2.377868  1 O  px         
   221      2.019121  5 O  s                126     -1.927094  3 V  pz         

 Vector   42  Occ=0.000000D+00  E= 4.365211D-01
              MO Center=  4.5D-02,  1.0D+00, -1.3D-01, r^2= 7.8D+00
   Bfn.  Coefficient  Atom+Function         Bfn.  Coefficient  Atom+Function  
  ----- ------------  ---------------      ----- ------------  ---------------
   339      6.520101  7 C  py                76      5.680963  2 H  s          
   221     -4.811915  5 O  s                412      3.734495  8 C  pz         
   290     -3.577532  6 H  s                340     -3.584221  7 C  pz         
   399      3.181831  8 C  s                400     -3.109968  8 C  s          
   411      3.065812  8 C  py               182      3.022665  4 V  s          

 Vector   43  Occ=0.000000D+00  E= 4.606681D-01
              MO Center=  1.6D-01,  1.0D+00,  2.3D-01, r^2= 6.3D+00
   Bfn.  Coefficient  Atom+Function         Bfn.  Coefficient  Atom+Function  
  ----- ------------  ---------------      ----- ------------  ---------------
   328     13.591355  7 C  s                400     -6.337679  8 C  s          
    75     -5.444083  2 H  s                114     -5.244792  3 V  s          
   182     -3.708571  4 V  s                411      3.530556  8 C  py         
   221      3.444627  5 O  s                357     -3.454009  7 C  dyz        
   340      3.239252  7 C  pz               336     -2.533736  7 C  py         

 Vector   44  Occ=0.000000D+00  E= 4.636332D-01
              MO Center= -7.8D-02,  3.4D-01,  2.5D-01, r^2= 6.2D+00
   Bfn.  Coefficient  Atom+Function         Bfn.  Coefficient  Atom+Function  
  ----- ------------  ---------------      ----- ------------  ---------------
   328    -16.420392  7 C  s                182     15.125590  4 V  s          
   335      9.165946  7 C  px               400      9.016735  8 C  s          
   336      8.961999  7 C  py                75      7.397402  2 H  s          
   399     -6.093942  8 C  s                327     -5.288121  7 C  s          
   354     -4.830249  7 C  dxy              357      3.514110  7 C  dyz        

 Vector   45  Occ=0.000000D+00  E= 4.960939D-01
              MO Center= -3.4D-02,  5.4D-01,  3.1D-01, r^2= 5.3D+00
   Bfn.  Coefficient  Atom+Function         Bfn.  Coefficient  Atom+Function  
  ----- ------------  ---------------      ----- ------------  ---------------
   336     10.586073  7 C  py               399    -10.364776  8 C  s          
   400     -6.702249  8 C  s                289      6.147247  6 H  s          
   182      5.571148  4 V  s                337      5.460329  7 C  pz         
   408      5.251087  8 C  py               356      4.924159  7 C  dyy        
   327     -3.777013  7 C  s                  7      3.629397  1 O  s          

 Vector   46  Occ=0.000000D+00  E= 5.194306D-01
              MO Center= -1.5D-01,  5.4D-01,  3.9D-01, r^2= 6.3D+00
   Bfn.  Coefficient  Atom+Function         Bfn.  Coefficient  Atom+Function  
  ----- ------------  ---------------      ----- ------------  ---------------
   328      9.416509  7 C  s                400     -6.380795  8 C  s          
   182     -5.093539  4 V  s                354      4.939226  7 C  dxy        
   335     -4.755730  7 C  px               399     -4.526043  8 C  s          
     7     -4.004186  1 O  s                338      3.954303  7 C  px         
   114     -3.705165  3 V  s                221     -3.623954  5 O  s          


------------------------------------------------------------
EAF file 0: "./l_0.05.aoints.0" size=58679885824 bytes
------------------------------------------------------------
               write      read    awrite     aread      wait
               -----      ----    ------     -----      ----
     calls:   111923        24         0   2686128   2686128
   data(b): 5.87e+10  1.26e+07  0.00e+00  1.41e+12
   time(s): 0.00e+00  0.00e+00  0.00e+00  0.00e+00  0.00e+00
rate(mb/s): 0.00e+00  0.00e+00
------------------------------------------------------------


 Parallel integral file used  111923 records with       0 large values


 Task  times  cpu:     3215.8s     wall:     3833.8s
 Summary of allocated global arrays
-----------------------------------
  No active global arrays



                         GA Statistics for process    0
                         ------------------------------

       create   destroy   get      put      acc     scatter   gather  read&inc
calls:  528      528     8.54e+04 2.52e+04 7.28e+04   32        0      818     
number of processes/call 1.00e+00 1.00e+00 1.00e+00 0.00e+00 0.00e+00
bytes total:             2.39e+09 4.31e+08 1.34e+09 1.73e+06 0.00e+00 6.54e+03
bytes remote:            0.00e+00 0.00e+00 0.00e+00 0.00e+00 0.00e+00 0.00e+00
Max memory consumed for GA by this process: 29406600 bytes
MA_summarize_allocated_blocks: starting scan ...
MA_summarize_allocated_blocks: scan completed: 0 heap blocks, 0 stack blocks
MA usage statistics:

	allocation statistics:
					      heap	     stack
					      ----	     -----
	current number of blocks	         0	         0
	maximum number of blocks	        20	        51
	current total bytes		         0	         0
	maximum total bytes		  10788824	  49312424
	maximum total K-bytes		     10789	     49313
	maximum total M-bytes		        11	        50


                                NWChem Input Module
                                -------------------





                                     CITATION
                                     --------
                Please cite the following reference when publishing
                           results obtained with NWChem:

                 M. Valiev, E.J. Bylaska, N. Govind, K. Kowalski,
              T.P. Straatsma, H.J.J. van Dam, D. Wang, J. Nieplocha,
                        E. Apra, T.L. Windus, W.A. de Jong
                 "NWChem: a comprehensive and scalable open-source
                  solution for large scale molecular simulations"
                      Comput. Phys. Commun. 181, 1477 (2010)
                           doi:10.1016/j.cpc.2010.04.018

                                      AUTHORS
                                      -------
          E. Apra, E. J. Bylaska, W. A. de Jong, N. Govind, K. Kowalski,
       T. P. Straatsma, M. Valiev, H. J. J. van Dam, D. Wang, T. L. Windus,
        J. Hammond, J. Autschbach, K. Bhaskaran-Nair, J. Brabec, K. Lopata,
       S. A. Fischer, S. Krishnamoorthy, W. Ma, M. Klemm, O. Villa, Y. Chen,
    V. Anisimov, F. Aquino, S. Hirata, M. T. Hackler, T. Risthaus, M. Malagoli,
       A. Marenich, A. Otero-de-la-Roza, J. Mullin, P. Nichols, R. Peverati,
     J. Pittner, Y. Zhao, P.-D. Fan, A. Fonari, M. Williamson, R. J. Harrison,
       J. R. Rehr, M. Dupuis, D. Silverstein, D. M. A. Smith, J. Nieplocha,
        V. Tipparaju, M. Krishnan, B. E. Van Kuiken, A. Vazquez-Mayagoitia,
        L. Jensen, M. Swart, Q. Wu, T. Van Voorhis, A. A. Auer, M. Nooijen,
      L. D. Crosby, E. Brown, G. Cisneros, G. I. Fann, H. Fruchtl, J. Garza,
        K. Hirao, R. A. Kendall, J. A. Nichols, K. Tsemekhman, K. Wolinski,
     J. Anchell, D. E. Bernholdt, P. Borowski, T. Clark, D. Clerc, H. Dachsel,
   M. J. O. Deegan, K. Dyall, D. Elwood, E. Glendening, M. Gutowski, A. C. Hess,
         J. Jaffe, B. G. Johnson, J. Ju, R. Kobayashi, R. Kutteh, Z. Lin,
   R. Littlefield, X. Long, B. Meng, T. Nakajima, S. Niu, L. Pollack, M. Rosing,
   K. Glaesemann, G. Sandrone, M. Stave, H. Taylor, G. Thomas, J. H. van Lenthe,
                               A. T. Wong, Z. Zhang.

 Total times  cpu:     3216.0s     wall:     3834.0s
