<?xml version="1.0" encoding="ISO-8859-1"?>
<modeling>
 <generator>
  <i name="program" type="string">vasp </i>
  <i name="version" type="string">5.4.1  </i>
  <i name="subversion" type="string">24Jun15 (build Oct 23 2015 09:54:11) complex                          parallel </i>
  <i name="platform" type="string">IFC91_ompi </i>
  <i name="date" type="string">2015 10 27 </i>
  <i name="time" type="string">12:51:31 </i>
 </generator>
 <incar>
  <i type="string" name="SYSTEM"> anDIR-01_00AB-Eb_A</i>
  <i type="string" name="PREC">normal</i>
  <i type="int" name="IBRION">     2</i>
  <i type="int" name="ISMEAR">     0</i>
  <i type="logical" name="LCHARG"> F  </i>
  <v type="int" name="KPOINT_BSE">    -1     0     0     0</v>
 </incar>
 <kpoints>
  <varray name="kpointlist" >
   <v>       0.00000000       0.00000000       0.00000000 </v>
  </varray>
  <varray name="weights" >
   <v>       1.00000000 </v>
  </varray>
 </kpoints>
 <parameters>
  <separator name="general" >
   <i type="string" name="SYSTEM">anDIR-01_00AB-Eb_A</i>
   <i type="logical" name="LCOMPAT"> F  </i>
  </separator>
  <separator name="electronic" >
   <i type="string" name="PREC">normal</i>
   <i name="ENMAX">    400.00000000</i>
   <i name="ENAUG">    605.39200000</i>
   <i name="EDIFF">      0.00010000</i>
   <i type="int" name="IALGO">    38</i>
   <i type="int" name="IWAVPR">    10</i>
   <i type="int" name="NBANDS">     8</i>
   <i name="NELECT">      8.00000000</i>
   <i type="int" name="TURBO">     0</i>
   <i type="int" name="IRESTART">     0</i>
   <i type="int" name="NREBOOT">     0</i>
   <i type="int" name="NMIN">     0</i>
   <i name="EREF">      0.00000000</i>
   <separator name="electronic smearing" >
    <i type="int" name="ISMEAR">     0</i>
    <i name="SIGMA">      0.20000000</i>
    <i name="KSPACING">      0.50000000</i>
    <i type="logical" name="KGAMMA"> T  </i>
   </separator>
   <separator name="electronic projectors" >
    <i type="logical" name="LREAL"> F  </i>
    <v name="ROPT">      0.00000000      0.00000000</v>
    <i type="int" name="LMAXPAW">  -100</i>
    <i type="int" name="LMAXMIX">     2</i>
    <i type="logical" name="NLSPLINE"> F  </i>
   </separator>
   <separator name="electronic startup" >
    <i type="int" name="ISTART">     0</i>
    <i type="int" name="ICHARG">     2</i>
    <i type="int" name="INIWAV">     1</i>
   </separator>
   <separator name="electronic spin" >
    <i type="int" name="ISPIN">     1</i>
    <i type="logical" name="LNONCOLLINEAR"> F  </i>
    <v name="MAGMOM">      1.00000000      1.00000000      1.00000000</v>
    <i name="NUPDOWN">     -1.00000000</i>
    <i type="logical" name="LSORBIT"> F  </i>
    <v name="SAXIS">      0.00000000      0.00000000      1.00000000</v>
    <i type="logical" name="LSPIRAL"> F  </i>
    <v name="QSPIRAL">      0.00000000      0.00000000      0.00000000</v>
    <i type="logical" name="LZEROZ"> F  </i>
   </separator>
   <separator name="electronic exchange-correlation" >
    <i type="logical" name="LASPH"> F  </i>
    <i type="logical" name="LMETAGGA"> F  </i>
   </separator>
   <separator name="electronic convergence" >
    <i type="int" name="NELM">    60</i>
    <i type="int" name="NELMDL">    -5</i>
    <i type="int" name="NELMIN">     2</i>
    <i name="ENINI">    400.00000000</i>
    <separator name="electronic convergence detail" >
     <i type="logical" name="LDIAG"> T  </i>
     <i type="logical" name="LSUBROT"> F  </i>
     <i name="WEIMIN">      0.00000000</i>
     <i name="EBREAK">      0.00000313</i>
     <i name="DEPER">      0.30000000</i>
     <i type="int" name="NRMM">     4</i>
     <i name="TIME">      0.40000000</i>
    </separator>
   </separator>
   <separator name="electronic mixer" >
    <i name="AMIX">      0.40000000</i>
    <i name="BMIX">      1.00000000</i>
    <i name="AMIN">      0.10000000</i>
    <i name="AMIX_MAG">      1.60000000</i>
    <i name="BMIX_MAG">      1.00000000</i>
    <separator name="electronic mixer details" >
     <i type="int" name="IMIX">     4</i>
     <i type="logical" name="MIXFIRST"> F  </i>
     <i type="int" name="MAXMIX">   -45</i>
     <i name="WC">    100.00000000</i>
     <i type="int" name="INIMIX">     1</i>
     <i type="int" name="MIXPRE">     1</i>
     <i type="int" name="MREMOVE">     5</i>
    </separator>
   </separator>
   <separator name="electronic dipolcorrection" >
    <i type="logical" name="LDIPOL"> F  </i>
    <i type="logical" name="LMONO"> F  </i>
    <i type="int" name="IDIPOL">     0</i>
    <i name="EPSILON">      1.00000000</i>
    <v name="DIPOL">   -100.00000000   -100.00000000   -100.00000000</v>
    <i name="EFIELD">      0.00000000</i>
   </separator>
  </separator>
  <separator name="grids" >
   <i type="int" name="NGX">    70</i>
   <i type="int" name="NGY">    56</i>
   <i type="int" name="NGZ">    54</i>
   <i type="int" name="NGXF">   140</i>
   <i type="int" name="NGYF">   112</i>
   <i type="int" name="NGZF">   108</i>
   <i type="logical" name="ADDGRID"> F  </i>
  </separator>
  <separator name="ionic" >
   <i type="int" name="NSW">     0</i>
   <i type="int" name="IBRION">    -1</i>
   <i type="int" name="ISIF">     2</i>
   <i name="PSTRESS">      0.00000000</i>
   <i name="EDIFFG">      0.00100000</i>
   <i type="int" name="NFREE">     1</i>
   <i name="POTIM">      0.50000000</i>
   <i name="SMASS">     -3.00000000</i>
   <i name="SCALEE">      1.00000000</i>
  </separator>
  <separator name="ionic md" >
   <i name="TEBEG">      0.00010000</i>
   <i name="TEEND">      0.00010000</i>
   <i type="int" name="NBLOCK">     1</i>
   <i type="int" name="KBLOCK">     1</i>
   <i type="int" name="NPACO">   256</i>
   <i name="APACO">     16.00000000</i>
  </separator>
  <separator name="symmetry" >
   <i type="int" name="ISYM">     2</i>
   <i name="SYMPREC">      0.00001000</i>
  </separator>
  <separator name="dos" >
   <i type="logical" name="LORBIT"> T  </i>
   <v name="RWIGS">     -1.00000000     -1.00000000</v>
   <i type="int" name="NEDOS">   301</i>
   <i name="EMIN">     10.00000000</i>
   <i name="EMAX">    -10.00000000</i>
   <i name="EFERMI">      0.00000000</i>
  </separator>
  <separator name="writing" >
   <i type="int" name="NWRITE">     2</i>
   <i type="logical" name="LWAVE"> T  </i>
   <i type="logical" name="LCHARG"> F  </i>
   <i type="logical" name="LPARD"> F  </i>
   <i type="logical" name="LVTOT"> F  </i>
   <i type="logical" name="LVHAR"> F  </i>
   <i type="logical" name="LELF"> F  </i>
   <i type="logical" name="LOPTICS"> F  </i>
   <v name="STM">      0.00000000      0.00000000      0.00000000      0.00000000      0.00000000      0.00000000      0.00000000</v>
  </separator>
  <separator name="performance" >
   <i type="int" name="NPAR">     4</i>
   <i type="int" name="NSIM">     4</i>
   <i type="int" name="NBLK">    -1</i>
   <i type="logical" name="LPLANE"> T  </i>
   <i type="logical" name="LSCALAPACK"> F  </i>
   <i type="logical" name="LSCAAWARE"> F  </i>
   <i type="logical" name="LSCALU"> F  </i>
   <i type="logical" name="LASYNC"> F  </i>
   <i type="logical" name="LORBITALREAL"> F  </i>
  </separator>
  <separator name="miscellaneous" >
   <i type="int" name="IDIOT">     3</i>
   <i type="logical" name="LMUSIC"> F  </i>
   <v name="POMASS">      1.00000000     16.00000000</v>
   <v name="DARWINR">      0.00000000      0.00000000</v>
   <v name="DARWINV">      1.00000000      1.00000000</v>
   <i type="logical" name="LCORR"> T  </i>
  </separator>
  <i type="logical" name="GGA_COMPAT"> T  </i>
  <i type="logical" name="LBERRY"> F  </i>
  <i type="int" name="ICORELEVEL">     0</i>
  <i type="logical" name="LDAU"> F  </i>
  <i type="int" name="I_CONSTRAINED_M">     0</i>
  <separator name="electronic exchange-correlation" >
   <i type="string" name="GGA">--</i>
   <i type="int" name="VOSKOWN">     0</i>
   <i type="logical" name="LHFCALC"> F  </i>
   <i type="string" name="PRECFOCK"></i>
   <i type="logical" name="LSYMGRAD"> F  </i>
   <i type="logical" name="LHFONE"> F  </i>
   <i type="logical" name="LRHFCALC"> F  </i>
   <i type="logical" name="LTHOMAS"> F  </i>
   <i type="logical" name="LMODELHF"> F  </i>
   <i name="ENCUT4O">     -1.00000000</i>
   <i type="int" name="EXXOEP">     0</i>
   <i type="int" name="FOURORBIT">     0</i>
   <i name="AEXX">      0.00000000</i>
   <i name="HFALPHA">      0.00000000</i>
   <i name="MCALPHA">      0.00000000</i>
   <i name="ALDAX">      1.00000000</i>
   <i name="AGGAX">      1.00000000</i>
   <i name="ALDAC">      1.00000000</i>
   <i name="AGGAC">      1.00000000</i>
   <i type="int" name="NKREDX">     1</i>
   <i type="int" name="NKREDY">     1</i>
   <i type="int" name="NKREDZ">     1</i>
   <i type="logical" name="SHIFTRED"> F  </i>
   <i type="logical" name="ODDONLY"> F  </i>
   <i type="logical" name="EVENONLY"> F  </i>
   <i type="int" name="LMAXFOCK">     0</i>
   <i type="int" name="NMAXFOCKAE">     0</i>
   <i type="logical" name="LFOCKAEDFT"> F  </i>
   <i name="HFSCREEN">      0.00000000</i>
   <i name="HFSCREENC">      0.00000000</i>
   <i type="int" name="NBANDSGWLOW">     0</i>
  </separator>
  <separator name="vdW DFT" >
   <i type="logical" name="LUSE_VDW"> F  </i>
   <i name="Zab_VDW">     -0.84910000</i>
   <i name="PARAM1">      0.12340000</i>
   <i name="PARAM2">      1.00000000</i>
   <i name="PARAM3">      0.00000000</i>
  </separator>
  <separator name="model GW" >
   <i type="int" name="MODEL_GW">     0</i>
   <i name="MODEL_EPS0">    330.49028256</i>
   <i name="MODEL_ALPHA">      1.00000000</i>
  </separator>
  <separator name="linear response parameters" >
   <i type="logical" name="LEPSILON"> F  </i>
   <i type="logical" name="LRPA"> F  </i>
   <i type="logical" name="LNABLA"> F  </i>
   <i type="logical" name="LVEL"> F  </i>
   <i type="int" name="KINTER">     0</i>
   <i name="CSHIFT">      0.10000000</i>
   <i name="OMEGAMAX">     -1.00000000</i>
   <i name="DEG_THRESHOLD">      0.00200000</i>
  </separator>
  <separator name="orbital magnetization" >
   <i type="logical" name="NUCIND"> F  </i>
   <v name="MAGPOS">      0.00000000      0.00000000      0.00000000</v>
   <i type="logical" name="LNICSALL"> T  </i>
   <i type="logical" name="ORBITALMAG"> F  </i>
   <i type="logical" name="LMAGBLOCH"> F  </i>
   <i type="logical" name="LCHIMAG"> F  </i>
   <i type="logical" name="LGAUGE"> T  </i>
   <i type="int" name="MAGATOM">     0</i>
   <v name="MAGDIPOL">      0.00000000      0.00000000      0.00000000</v>
   <v name="AVECCONST">      0.00000000      0.00000000      0.00000000</v>
  </separator>
  <separator name="response functions" >
   <i type="logical" name="LADDER"> F  </i>
   <i type="logical" name="LFXC"> F  </i>
   <i type="logical" name="LHARTREE"> T  </i>
   <i type="int" name="IBSE">     0</i>
   <v type="int" name="KPOINT">    -1     0     0     0</v>
   <i type="logical" name="LTCTE"> F  </i>
   <i type="logical" name="LTETE"> F  </i>
   <i type="logical" name="LTRIPLET"> F  </i>
   <i type="logical" name="LFXCEPS"> F  </i>
   <i type="logical" name="LFXHEG"> F  </i>
   <i type="int" name="NATURALO">     0</i>
   <i type="logical" name="L2ORDER"> F  </i>
   <i type="logical" name="LUSEW"> F  </i>
   <i name="ENCUTGW">     -2.00000000</i>
   <i name="ENCUTGWSOFT">     -2.00000000</i>
   <i name="ENCUTLF">     -1.00000000</i>
   <i type="int" name="LMAXMP2">    -1</i>
   <i name="SCISSOR">      0.00000000</i>
   <i type="int" name="NOMEGA">     0</i>
   <i type="int" name="NOMEGAR">     0</i>
   <i type="int" name="NBANDSGW">    -1</i>
   <i type="int" name="NBANDSO">    -1</i>
   <i type="int" name="NBANDSV">    -1</i>
   <i type="int" name="NELM">     1</i>
   <i type="int" name="NELMHF">     1</i>
   <i type="int" name="DIM">     3</i>
   <i type="int" name="ANTIRES">     0</i>
   <i name="OMEGAMAX">    -30.00000000</i>
   <i name="OMEGAMIN">    -30.00000000</i>
   <i name="OMEGATL">   -200.00000000</i>
   <i type="int" name="OMEGAGRID">     0</i>
   <i name="CSHIFT">     -0.10000000</i>
   <i type="logical" name="SELFENERGY"> F  </i>
   <i type="logical" name="LSPECTRAL"> F  </i>
   <i type="logical" name="LSPECTRALGW"> F  </i>
   <i type="logical" name="LSINGLES"> F  </i>
   <i type="logical" name="LFERMIGW"> F  </i>
   <i type="logical" name="ODDONLYGW"> F  </i>
   <i type="logical" name="EVENONLYGW"> F  </i>
   <i type="int" name="NKREDLFX">     1</i>
   <i type="int" name="NKREDLFY">     1</i>
   <i type="int" name="NKREDLFZ">     1</i>
   <i type="int" name="MAXMEM">  1800</i>
   <i type="int" name="TELESCOPE">     0</i>
   <i type="int" name="TAUPAR">     1</i>
   <i type="int" name="OMEGAPAR">    -1</i>
   <i name="LAMBDA">      1.00000000</i>
  </separator>
  <separator name="External order field" >
   <i name="OFIELD_KAPPA">      0.00000000</i>
   <v name="OFIELD_K">      0.00000000      0.00000000      0.00000000</v>
   <i name="OFIELD_Q6_NEAR">      0.00000000</i>
   <i name="OFIELD_Q6_FAR">      0.00000000</i>
   <i name="OFIELD_A">      0.00000000</i>
  </separator>
 </parameters>
 <atominfo>
  <atoms>       3 </atoms>
  <types>       2 </types>
  <array name="atoms" >
   <dimension dim="1">ion</dimension>
   <field type="string">element</field>
   <field type="int">atomtype</field>
   <set>
    <rc><c>H </c><c>   1</c></rc>
    <rc><c>H </c><c>   1</c></rc>
    <rc><c>O </c><c>   2</c></rc>
   </set>
  </array>
  <array name="atomtypes" >
   <dimension dim="1">type</dimension>
   <field type="int">atomspertype</field>
   <field type="string">element</field>
   <field>mass</field>
   <field>valence</field>
   <field type="string">pseudopotential</field>
   <set>
    <rc><c>   2</c><c>H </c><c>      1.00000000</c><c>      1.00000000</c><c>  PAW_PBE H 15Jun2001                   </c></rc>
    <rc><c>   1</c><c>O </c><c>     16.00000000</c><c>      6.00000000</c><c>  PAW_PBE O 08Apr2002                   </c></rc>
   </set>
  </array>
 </atominfo>
 <structure name="initialpos" >
  <crystal>
   <varray name="basis" >
    <v>      13.61850000       0.00000000       0.00000000 </v>
    <v>       0.00000000      11.25800000       0.00000000 </v>
    <v>       0.00000000       0.00000000      10.77800000 </v>
   </varray>
   <i name="volume">   1652.45141279 </i>
   <varray name="rec_basis" >
    <v>       0.07342953       0.00000000       0.00000000 </v>
    <v>       0.00000000       0.08882572       0.00000000 </v>
    <v>       0.00000000       0.00000000       0.09278159 </v>
   </varray>
  </crystal>
  <varray name="positions" >
   <v>       0.36714763       0.55587138       0.46390796 </v>
   <v>       0.46108602       0.48441997       0.46545741 </v>
   <v>       0.39063774       0.47570616       0.46589349 </v>
  </varray>
 </structure>
 <calculation>
  <scstep>
   <time name="dav">    0.38    0.38</time>
   <time name="total">    1.36    1.36</time>
   <energy>
    <i name="alphaZ">      0.13570825 </i>
    <i name="ewald">     80.70289571 </i>
    <i name="hartreedc">   -439.07148696 </i>
    <i name="XCdc">     32.22591798 </i>
    <i name="pawpsdc">    350.81753176 </i>
    <i name="pawaedc">   -352.63395800 </i>
    <i name="eentropy">     -0.00001397 </i>
    <i name="bandstr">    -69.04075575 </i>
    <i name="atom">    457.22046137 </i>
    <i name="e_fr_energy">     60.35630038 </i>
    <i name="e_wo_entrp">     60.35631435 </i>
    <i name="e_0_energy">     60.35630737 </i>
   </energy>
  </scstep>
  <scstep>
   <time name="dav">    0.39    0.39</time>
   <time name="total">    0.39    0.39</time>
   <energy>
    <i name="e_fr_energy">     -0.55163598 </i>
    <i name="e_wo_entrp">     -0.55163598 </i>
    <i name="e_0_energy">     -0.55163598 </i>
   </energy>
  </scstep>
  <scstep>
   <time name="dav">    0.29    0.29</time>
   <time name="total">    0.29    0.29</time>
   <energy>
    <i name="e_fr_energy">    -15.67400051 </i>
    <i name="e_wo_entrp">    -15.67400051 </i>
    <i name="e_0_energy">    -15.67400051 </i>
   </energy>
  </scstep>
  <scstep>
   <time name="dav">    0.29    0.29</time>
   <time name="total">    0.29    0.29</time>
   <energy>
    <i name="e_fr_energy">    -16.28576656 </i>
    <i name="e_wo_entrp">    -16.28576656 </i>
    <i name="e_0_energy">    -16.28576656 </i>
   </energy>
  </scstep>
  <scstep>
   <time name="dav">    0.40    0.40</time>
   <time name="total">    0.53    0.53</time>
   <energy>
    <i name="e_fr_energy">    -16.29322470 </i>
    <i name="e_wo_entrp">    -16.29322470 </i>
    <i name="e_0_energy">    -16.29322470 </i>
   </energy>
  </scstep>
  <scstep>
   <time name="dav">    0.29    0.29</time>
   <time name="total">    1.34    1.34</time>
   <energy>
    <i name="e_fr_energy">    -14.37980901 </i>
    <i name="e_wo_entrp">    -14.37980901 </i>
    <i name="e_0_energy">    -14.37980901 </i>
   </energy>
  </scstep>
  <scstep>
   <time name="dav">    0.49    0.49</time>
   <time name="total">    1.54    1.54</time>
   <energy>
    <i name="e_fr_energy">    -14.27635162 </i>
    <i name="e_wo_entrp">    -14.27635162 </i>
    <i name="e_0_energy">    -14.27635162 </i>
   </energy>
  </scstep>
  <scstep>
   <time name="dav">    0.39    0.39</time>
   <time name="total">    1.44    1.44</time>
   <energy>
    <i name="e_fr_energy">    -14.19838557 </i>
    <i name="e_wo_entrp">    -14.19838557 </i>
    <i name="e_0_energy">    -14.19838557 </i>
   </energy>
  </scstep>
  <scstep>
   <time name="dav">    0.27    0.27</time>
   <time name="total">    1.33    1.34</time>
   <energy>
    <i name="e_fr_energy">    -14.19907860 </i>
    <i name="e_wo_entrp">    -14.19907860 </i>
    <i name="e_0_energy">    -14.19907860 </i>
   </energy>
  </scstep>
  <scstep>
   <time name="dav">    0.28    0.28</time>
   <time name="total">    1.29    1.31</time>
   <energy>
    <i name="e_fr_energy">    -14.20488410 </i>
    <i name="e_wo_entrp">    -14.20488410 </i>
    <i name="e_0_energy">    -14.20488410 </i>
   </energy>
  </scstep>
  <scstep>
   <time name="dav">    0.29    0.29</time>
   <time name="total">    1.34    1.34</time>
   <energy>
    <i name="e_fr_energy">    -14.20987541 </i>
    <i name="e_wo_entrp">    -14.20987541 </i>
    <i name="e_0_energy">    -14.20987541 </i>
   </energy>
  </scstep>
  <scstep>
   <time name="dav">    0.29    0.30</time>
   <time name="total">    1.31    1.34</time>
   <energy>
    <i name="e_fr_energy">    -14.21370133 </i>
    <i name="e_wo_entrp">    -14.21370133 </i>
    <i name="e_0_energy">    -14.21370133 </i>
   </energy>
  </scstep>
  <scstep>
   <time name="dav">    0.28    0.28</time>
   <time name="total">    1.29    1.32</time>
   <energy>
    <i name="e_fr_energy">    -14.21580799 </i>
    <i name="e_wo_entrp">    -14.21580799 </i>
    <i name="e_0_energy">    -14.21580799 </i>
   </energy>
  </scstep>
  <scstep>
   <time name="dav">    0.26    0.26</time>
   <time name="total">    1.28    1.29</time>
   <energy>
    <i name="e_fr_energy">    -14.21658477 </i>
    <i name="e_wo_entrp">    -14.21658477 </i>
    <i name="e_0_energy">    -14.21658477 </i>
   </energy>
  </scstep>
  <scstep>
   <time name="dav">    0.30    0.30</time>
   <time name="total">    1.28    1.28</time>
   <energy>
    <i name="e_fr_energy">    -14.21702350 </i>
    <i name="e_wo_entrp">    -14.21702350 </i>
    <i name="e_0_energy">    -14.21702350 </i>
   </energy>
  </scstep>
  <scstep>
   <time name="dav">    0.29    0.29</time>
   <time name="total">    1.31    1.31</time>
   <energy>
    <i name="e_fr_energy">    -14.21718140 </i>
    <i name="e_wo_entrp">    -14.21718140 </i>
    <i name="e_0_energy">    -14.21718140 </i>
   </energy>
  </scstep>
  <scstep>
   <time name="dav">    0.50    0.50</time>
   <time name="total">    1.38    1.38</time>
   <energy>
    <i name="alphaZ">      0.13570825 </i>
    <i name="ewald">     80.70289571 </i>
    <i name="hartreedc">   -474.42533699 </i>
    <i name="XCdc">     34.10211424 </i>
    <i name="pawpsdc">    566.86507080 </i>
    <i name="pawaedc">   -568.93472258 </i>
    <i name="eentropy">     -0.00000000 </i>
    <i name="bandstr">   -109.88342060 </i>
    <i name="atom">    457.22046137 </i>
    <i name="e_fr_energy">    -14.21722981 </i>
    <i name="e_wo_entrp">    -14.21722981 </i>
    <i name="e_0_energy">    -14.21722981 </i>
   </energy>
  </scstep>
  <structure>
   <crystal>
    <varray name="basis" >
     <v>      13.61850000       0.00000000       0.00000000 </v>
     <v>       0.00000000      11.25800000       0.00000000 </v>
     <v>       0.00000000       0.00000000      10.77800000 </v>
    </varray>
    <i name="volume">   1652.45141279 </i>
    <varray name="rec_basis" >
     <v>       0.07342953       0.00000000       0.00000000 </v>
     <v>       0.00000000       0.08882572       0.00000000 </v>
     <v>       0.00000000       0.00000000       0.09278159 </v>
    </varray>
   </crystal>
   <varray name="positions" >
    <v>       0.36714763       0.55587138       0.46390796 </v>
    <v>       0.46108602       0.48441997       0.46545741 </v>
    <v>       0.39063774       0.47570616       0.46589349 </v>
   </varray>
  </structure>
  <varray name="forces" >
   <v>      -0.36528898       0.71752271      -0.01440211 </v>
   <v>       0.44464936      -0.05933509       0.00252911 </v>
   <v>      -0.07936038      -0.65818762       0.01187300 </v>
  </varray>
  <varray name="stress" >
   <v>      -0.19224925      -0.30489461       0.00607798 </v>
   <v>      -0.30489461      -0.11340031      -0.01743000 </v>
   <v>       0.00607798      -0.01743001      -0.82550692 </v>
  </varray>
  <energy>
   <i name="e_fr_energy">    -14.22391436 </i>
   <i name="e_wo_entrp">    -14.22391436 </i>
   <i name="e_0_energy">     -0.00000000 </i>
  </energy>
  <time name="totalsc">   65.88   65.95</time>
  <eigenvalues>
   <array>
    <dimension dim="1">band</dimension>
    <dimension dim="2">kpoint</dimension>
    <dimension dim="3">spin</dimension>
    <field>eigene</field>
    <field>occ</field>
    <set>
     <set comment="spin 1">
      <set comment="kpoint 1">
       <r>  -25.3887    1.0000 </r>
       <r>  -13.1054    1.0000 </r>
       <r>   -9.2692    1.0000 </r>
       <r>   -7.1784    1.0000 </r>
       <r>   -0.9443    0.0000 </r>
       <r>    0.2041    0.0000 </r>
       <r>    0.4105    0.0000 </r>
       <r>    0.8486    0.0000 </r>
      </set>
     </set>
    </set>
   </array>
  </eigenvalues>
  <separator name="orbital magnetization" >
   <v name="MAGDIPOLOUT">      0.00000000      0.00000000      0.00000000</v>
  </separator>
  <dos>
   <i name="efermi">     -6.22182145 </i>
   <total>
    <array>
     <dimension dim="1">gridpoints</dimension>
     <dimension dim="2">spin</dimension>
     <field>energy</field>
     <field>total</field>
     <field>integrated</field>
     <set>
      <set comment="spin 1">
       <r>   -27.3887     0.0000     0.0000 </r>
       <r>   -27.2879     0.0000     0.0000 </r>
       <r>   -27.1871     0.0000     0.0000 </r>
       <r>   -27.0863     0.0000     0.0000 </r>
       <r>   -26.9855     0.0000     0.0000 </r>
       <r>   -26.8848     0.0000     0.0000 </r>
       <r>   -26.7840     0.0000     0.0000 </r>
       <r>   -26.6832     0.0000     0.0000 </r>
       <r>   -26.5824     0.0000     0.0000 </r>
       <r>   -26.4816     0.0000     0.0000 </r>
       <r>   -26.3808     0.0000     0.0000 </r>
       <r>   -26.2800     0.0000     0.0000 </r>
       <r>   -26.1792     0.0000     0.0000 </r>
       <r>   -26.0784     0.0000     0.0000 </r>
       <r>   -25.9776     0.0003     0.0000 </r>
       <r>   -25.8768     0.0052     0.0006 </r>
       <r>   -25.7761     0.0556     0.0062 </r>
       <r>   -25.6753     0.3629     0.0427 </r>
       <r>   -25.5745     1.4511     0.1890 </r>
       <r>   -25.4737     3.5613     0.5479 </r>
       <r>   -25.3729     5.3687     1.0891 </r>
       <r>   -25.2721     4.9738     1.5904 </r>
       <r>   -25.1713     2.8315     1.8758 </r>
       <r>   -25.0705     0.9900     1.9755 </r>
       <r>   -24.9697     0.2123     1.9970 </r>
       <r>   -24.8689     0.0279     1.9998 </r>
       <r>   -24.7681     0.0022     2.0000 </r>
       <r>   -24.6674     0.0001     2.0000 </r>
       <r>   -24.5666     0.0000     2.0000 </r>
       <r>   -24.4658     0.0000     2.0000 </r>
       <r>   -24.3650     0.0000     2.0000 </r>
       <r>   -24.2642     0.0000     2.0000 </r>
       <r>   -24.1634     0.0000     2.0000 </r>
       <r>   -24.0626     0.0000     2.0000 </r>
       <r>   -23.9618     0.0000     2.0000 </r>
       <r>   -23.8610     0.0000     2.0000 </r>
       <r>   -23.7602     0.0000     2.0000 </r>
       <r>   -23.6594     0.0000     2.0000 </r>
       <r>   -23.5587     0.0000     2.0000 </r>
       <r>   -23.4579     0.0000     2.0000 </r>
       <r>   -23.3571     0.0000     2.0000 </r>
       <r>   -23.2563     0.0000     2.0000 </r>
       <r>   -23.1555     0.0000     2.0000 </r>
       <r>   -23.0547     0.0000     2.0000 </r>
       <r>   -22.9539     0.0000     2.0000 </r>
       <r>   -22.8531     0.0000     2.0000 </r>
       <r>   -22.7523     0.0000     2.0000 </r>
       <r>   -22.6515     0.0000     2.0000 </r>
       <r>   -22.5507     0.0000     2.0000 </r>
       <r>   -22.4500     0.0000     2.0000 </r>
       <r>   -22.3492     0.0000     2.0000 </r>
       <r>   -22.2484     0.0000     2.0000 </r>
       <r>   -22.1476     0.0000     2.0000 </r>
       <r>   -22.0468     0.0000     2.0000 </r>
       <r>   -21.9460     0.0000     2.0000 </r>
       <r>   -21.8452     0.0000     2.0000 </r>
       <r>   -21.7444     0.0000     2.0000 </r>
       <r>   -21.6436     0.0000     2.0000 </r>
       <r>   -21.5428     0.0000     2.0000 </r>
       <r>   -21.4420     0.0000     2.0000 </r>
       <r>   -21.3413     0.0000     2.0000 </r>
       <r>   -21.2405     0.0000     2.0000 </r>
       <r>   -21.1397     0.0000     2.0000 </r>
       <r>   -21.0389     0.0000     2.0000 </r>
       <r>   -20.9381     0.0000     2.0000 </r>
       <r>   -20.8373     0.0000     2.0000 </r>
       <r>   -20.7365     0.0000     2.0000 </r>
       <r>   -20.6357     0.0000     2.0000 </r>
       <r>   -20.5349     0.0000     2.0000 </r>
       <r>   -20.4341     0.0000     2.0000 </r>
       <r>   -20.3333     0.0000     2.0000 </r>
       <r>   -20.2326     0.0000     2.0000 </r>
       <r>   -20.1318     0.0000     2.0000 </r>
       <r>   -20.0310     0.0000     2.0000 </r>
       <r>   -19.9302     0.0000     2.0000 </r>
       <r>   -19.8294     0.0000     2.0000 </r>
       <r>   -19.7286     0.0000     2.0000 </r>
       <r>   -19.6278     0.0000     2.0000 </r>
       <r>   -19.5270     0.0000     2.0000 </r>
       <r>   -19.4262     0.0000     2.0000 </r>
       <r>   -19.3254     0.0000     2.0000 </r>
       <r>   -19.2246     0.0000     2.0000 </r>
       <r>   -19.1238     0.0000     2.0000 </r>
       <r>   -19.0231     0.0000     2.0000 </r>
       <r>   -18.9223     0.0000     2.0000 </r>
       <r>   -18.8215     0.0000     2.0000 </r>
       <r>   -18.7207     0.0000     2.0000 </r>
       <r>   -18.6199     0.0000     2.0000 </r>
       <r>   -18.5191     0.0000     2.0000 </r>
       <r>   -18.4183     0.0000     2.0000 </r>
       <r>   -18.3175     0.0000     2.0000 </r>
       <r>   -18.2167     0.0000     2.0000 </r>
       <r>   -18.1159     0.0000     2.0000 </r>
       <r>   -18.0151     0.0000     2.0000 </r>
       <r>   -17.9144     0.0000     2.0000 </r>
       <r>   -17.8136     0.0000     2.0000 </r>
       <r>   -17.7128     0.0000     2.0000 </r>
       <r>   -17.6120     0.0000     2.0000 </r>
       <r>   -17.5112     0.0000     2.0000 </r>
       <r>   -17.4104     0.0000     2.0000 </r>
       <r>   -17.3096     0.0000     2.0000 </r>
       <r>   -17.2088     0.0000     2.0000 </r>
       <r>   -17.1080     0.0000     2.0000 </r>
       <r>   -17.0072     0.0000     2.0000 </r>
       <r>   -16.9064     0.0000     2.0000 </r>
       <r>   -16.8057     0.0000     2.0000 </r>
       <r>   -16.7049     0.0000     2.0000 </r>
       <r>   -16.6041     0.0000     2.0000 </r>
       <r>   -16.5033     0.0000     2.0000 </r>
       <r>   -16.4025     0.0000     2.0000 </r>
       <r>   -16.3017     0.0000     2.0000 </r>
       <r>   -16.2009     0.0000     2.0000 </r>
       <r>   -16.1001     0.0000     2.0000 </r>
       <r>   -15.9993     0.0000     2.0000 </r>
       <r>   -15.8985     0.0000     2.0000 </r>
       <r>   -15.7977     0.0000     2.0000 </r>
       <r>   -15.6970     0.0000     2.0000 </r>
       <r>   -15.5962     0.0000     2.0000 </r>
       <r>   -15.4954     0.0000     2.0000 </r>
       <r>   -15.3946     0.0000     2.0000 </r>
       <r>   -15.2938     0.0000     2.0000 </r>
       <r>   -15.1930     0.0000     2.0000 </r>
       <r>   -15.0922     0.0000     2.0000 </r>
       <r>   -14.9914     0.0000     2.0000 </r>
       <r>   -14.8906     0.0000     2.0000 </r>
       <r>   -14.7898     0.0000     2.0000 </r>
       <r>   -14.6890     0.0000     2.0000 </r>
       <r>   -14.5883     0.0000     2.0000 </r>
       <r>   -14.4875     0.0000     2.0000 </r>
       <r>   -14.3867     0.0000     2.0000 </r>
       <r>   -14.2859     0.0000     2.0000 </r>
       <r>   -14.1851     0.0000     2.0000 </r>
       <r>   -14.0843     0.0000     2.0000 </r>
       <r>   -13.9835     0.0000     2.0000 </r>
       <r>   -13.8827     0.0000     2.0000 </r>
       <r>   -13.7819     0.0000     2.0000 </r>
       <r>   -13.6811     0.0004     2.0000 </r>
       <r>   -13.5803     0.0073     2.0008 </r>
       <r>   -13.4796     0.0731     2.0081 </r>
       <r>   -13.3788     0.4471     2.0532 </r>
       <r>   -13.2780     1.6774     2.2223 </r>
       <r>   -13.1772     3.8626     2.6116 </r>
       <r>   -13.0764     5.4643     3.1624 </r>
       <r>   -12.9756     4.7506     3.6412 </r>
       <r>   -12.8748     2.5378     3.8970 </r>
       <r>   -12.7740     0.8325     3.9809 </r>
       <r>   -12.6732     0.1675     3.9978 </r>
       <r>   -12.5724     0.0206     3.9998 </r>
       <r>   -12.4716     0.0016     4.0000 </r>
       <r>   -12.3709     0.0001     4.0000 </r>
       <r>   -12.2701     0.0000     4.0000 </r>
       <r>   -12.1693     0.0000     4.0000 </r>
       <r>   -12.0685     0.0000     4.0000 </r>
       <r>   -11.9677     0.0000     4.0000 </r>
       <r>   -11.8669     0.0000     4.0000 </r>
       <r>   -11.7661     0.0000     4.0000 </r>
       <r>   -11.6653     0.0000     4.0000 </r>
       <r>   -11.5645     0.0000     4.0000 </r>
       <r>   -11.4637     0.0000     4.0000 </r>
       <r>   -11.3629     0.0000     4.0000 </r>
       <r>   -11.2622     0.0000     4.0000 </r>
       <r>   -11.1614     0.0000     4.0000 </r>
       <r>   -11.0606     0.0000     4.0000 </r>
       <r>   -10.9598     0.0000     4.0000 </r>
       <r>   -10.8590     0.0000     4.0000 </r>
       <r>   -10.7582     0.0000     4.0000 </r>
       <r>   -10.6574     0.0000     4.0000 </r>
       <r>   -10.5566     0.0000     4.0000 </r>
       <r>   -10.4558     0.0000     4.0000 </r>
       <r>   -10.3550     0.0000     4.0000 </r>
       <r>   -10.2542     0.0000     4.0000 </r>
       <r>   -10.1535     0.0000     4.0000 </r>
       <r>   -10.0527     0.0000     4.0000 </r>
       <r>    -9.9519     0.0000     4.0000 </r>
       <r>    -9.8511     0.0004     4.0000 </r>
       <r>    -9.7503     0.0063     4.0007 </r>
       <r>    -9.6495     0.0645     4.0072 </r>
       <r>    -9.5487     0.4065     4.0481 </r>
       <r>    -9.4479     1.5706     4.2064 </r>
       <r>    -9.3471     3.7244     4.5818 </r>
       <r>    -9.2463     5.4256     5.1287 </r>
       <r>    -9.1455     4.8573     5.6183 </r>
       <r>    -9.0448     2.6721     5.8876 </r>
       <r>    -8.9440     0.9027     5.9786 </r>
       <r>    -8.8432     0.1871     5.9974 </r>
       <r>    -8.7424     0.0237     5.9998 </r>
       <r>    -8.6416     0.0018     6.0000 </r>
       <r>    -8.5408     0.0001     6.0000 </r>
       <r>    -8.4400     0.0000     6.0000 </r>
       <r>    -8.3392     0.0000     6.0000 </r>
       <r>    -8.2384     0.0000     6.0000 </r>
       <r>    -8.1376     0.0000     6.0000 </r>
       <r>    -8.0368     0.0000     6.0000 </r>
       <r>    -7.9361     0.0000     6.0000 </r>
       <r>    -7.8353     0.0000     6.0000 </r>
       <r>    -7.7345     0.0008     6.0001 </r>
       <r>    -7.6337     0.0119     6.0013 </r>
       <r>    -7.5329     0.1082     6.0122 </r>
       <r>    -7.4321     0.6015     6.0728 </r>
       <r>    -7.3313     2.0512     6.2795 </r>
       <r>    -7.2305     4.2946     6.7124 </r>
       <r>    -7.1297     5.5243     7.2692 </r>
       <r>    -7.0289     4.3672     7.7094 </r>
       <r>    -6.9281     2.1212     7.9232 </r>
       <r>    -6.8274     0.6326     7.9869 </r>
       <r>    -6.7266     0.1157     7.9986 </r>
       <r>    -6.6258     0.0130     7.9999 </r>
       <r>    -6.5250     0.0009     8.0000 </r>
       <r>    -6.4242     0.0000     8.0000 </r>
       <r>    -6.3234     0.0000     8.0000 </r>
       <r>    -6.2226     0.0000     8.0000 </r>
       <r>    -6.1218     0.0000     8.0000 </r>
       <r>    -6.0210     0.0000     8.0000 </r>
       <r>    -5.9202     0.0000     8.0000 </r>
       <r>    -5.8194     0.0000     8.0000 </r>
       <r>    -5.7187     0.0000     8.0000 </r>
       <r>    -5.6179     0.0000     8.0000 </r>
       <r>    -5.5171     0.0000     8.0000 </r>
       <r>    -5.4163     0.0000     8.0000 </r>
       <r>    -5.3155     0.0000     8.0000 </r>
       <r>    -5.2147     0.0000     8.0000 </r>
       <r>    -5.1139     0.0000     8.0000 </r>
       <r>    -5.0131     0.0000     8.0000 </r>
       <r>    -4.9123     0.0000     8.0000 </r>
       <r>    -4.8115     0.0000     8.0000 </r>
       <r>    -4.7107     0.0000     8.0000 </r>
       <r>    -4.6100     0.0000     8.0000 </r>
       <r>    -4.5092     0.0000     8.0000 </r>
       <r>    -4.4084     0.0000     8.0000 </r>
       <r>    -4.3076     0.0000     8.0000 </r>
       <r>    -4.2068     0.0000     8.0000 </r>
       <r>    -4.1060     0.0000     8.0000 </r>
       <r>    -4.0052     0.0000     8.0000 </r>
       <r>    -3.9044     0.0000     8.0000 </r>
       <r>    -3.8036     0.0000     8.0000 </r>
       <r>    -3.7028     0.0000     8.0000 </r>
       <r>    -3.6020     0.0000     8.0000 </r>
       <r>    -3.5013     0.0000     8.0000 </r>
       <r>    -3.4005     0.0000     8.0000 </r>
       <r>    -3.2997     0.0000     8.0000 </r>
       <r>    -3.1989     0.0000     8.0000 </r>
       <r>    -3.0981     0.0000     8.0000 </r>
       <r>    -2.9973     0.0000     8.0000 </r>
       <r>    -2.8965     0.0000     8.0000 </r>
       <r>    -2.7957     0.0000     8.0000 </r>
       <r>    -2.6949     0.0000     8.0000 </r>
       <r>    -2.5941     0.0000     8.0000 </r>
       <r>    -2.4933     0.0000     8.0000 </r>
       <r>    -2.3926     0.0000     8.0000 </r>
       <r>    -2.2918     0.0000     8.0000 </r>
       <r>    -2.1910     0.0000     8.0000 </r>
       <r>    -2.0902     0.0000     8.0000 </r>
       <r>    -1.9894     0.0000     8.0000 </r>
       <r>    -1.8886     0.0000     8.0000 </r>
       <r>    -1.7878     0.0000     8.0000 </r>
       <r>    -1.6870     0.0000     8.0000 </r>
       <r>    -1.5862     0.0001     8.0000 </r>
       <r>    -1.4854     0.0012     8.0001 </r>
       <r>    -1.3846     0.0171     8.0018 </r>
       <r>    -1.2839     0.1440     8.0164 </r>
       <r>    -1.1831     0.7445     8.0914 </r>
       <r>    -1.0823     2.3611     8.3294 </r>
       <r>    -0.9815     4.5979     8.7928 </r>
       <r>    -0.8807     5.5016     9.3473 </r>
       <r>    -0.7799     4.0456     9.7551 </r>
       <r>    -0.6791     1.8276     9.9393 </r>
       <r>    -0.5783     0.5068     9.9903 </r>
       <r>    -0.4775     0.0862     9.9990 </r>
       <r>    -0.3767     0.0094    10.0000 </r>
       <r>    -0.2759     0.0070    10.0007 </r>
       <r>    -0.1752     0.0662    10.0074 </r>
       <r>    -0.0744     0.4186    10.0496 </r>
       <r>     0.0264     1.6474    10.2156 </r>
       <r>     0.1272     4.1299    10.6318 </r>
       <r>     0.2280     6.9388    11.3312 </r>
       <r>     0.3288     8.4800    12.1859 </r>
       <r>     0.4296     8.0746    12.9998 </r>
       <r>     0.5304     6.0239    13.6069 </r>
       <r>     0.6312     3.9306    14.0031 </r>
       <r>     0.7320     3.8033    14.3864 </r>
       <r>     0.8328     5.1758    14.9081 </r>
       <r>     0.9335     5.3947    15.4518 </r>
       <r>     1.0343     3.5633    15.8110 </r>
       <r>     1.1351     1.4512    15.9573 </r>
       <r>     1.2359     0.3629    15.9938 </r>
       <r>     1.3367     0.0556    15.9994 </r>
       <r>     1.4375     0.0052    16.0000 </r>
       <r>     1.5383     0.0003    16.0000 </r>
       <r>     1.6391     0.0000    16.0000 </r>
       <r>     1.7399     0.0000    16.0000 </r>
       <r>     1.8407     0.0000    16.0000 </r>
       <r>     1.9415     0.0000    16.0000 </r>
       <r>     2.0422     0.0000    16.0000 </r>
       <r>     2.1430     0.0000    16.0000 </r>
       <r>     2.2438     0.0000    16.0000 </r>
       <r>     2.3446     0.0000    16.0000 </r>
       <r>     2.4454     0.0000    16.0000 </r>
       <r>     2.5462     0.0000    16.0000 </r>
       <r>     2.6470     0.0000    16.0000 </r>
       <r>     2.7478     0.0000    16.0000 </r>
       <r>     2.8486     0.0000    16.0000 </r>
      </set>
     </set>
    </array>
   </total>
  </dos>
 </calculation>
 <structure name="finalpos" >
  <crystal>
   <varray name="basis" >
    <v>      13.61850000       0.00000000       0.00000000 </v>
    <v>       0.00000000      11.25800000       0.00000000 </v>
    <v>       0.00000000       0.00000000      10.77800000 </v>
   </varray>
   <i name="volume">   1652.45141279 </i>
   <varray name="rec_basis" >
    <v>       0.07342953       0.00000000       0.00000000 </v>
    <v>       0.00000000       0.08882572       0.00000000 </v>
    <v>       0.00000000       0.00000000       0.09278159 </v>
   </varray>
  </crystal>
  <varray name="positions" >
   <v>       0.36714763       0.55587138       0.46390796 </v>
   <v>       0.46108602       0.48441997       0.46545741 </v>
   <v>       0.39063774       0.47570616       0.46589349 </v>
  </varray>
 </structure>
</modeling>
