h2                                      
   1.0000000000000000     
     6.740000    0.000000    0.000000
     0.000000    6.000000    0.000000
     0.000000    0.000000    6.000000
   H 
     2
Direct
  0.445104  0.500000  0.500000
  0.554896  0.500000  0.500000

   56   48   48
 -.46907E-03 -.33373E-03 -.27641E-04 0.17450E-03 0.49338E-04 -.20364E-03 -.40945E-04 0.71452E-03 0.14451E-02 0.13864E-02
 0.60417E-03 -.76807E-04 -.11305E-03 0.21834E-03 0.41694E-03 0.44159E-03 0.52666E-03 0.68978E-03 0.83131E-03 0.11123E-02
 0.17809E-02 0.26724E-02 0.33027E-02 0.35238E-02 0.37437E-02 0.43671E-02 0.52867E-02 0.60599E-02 0.63503E-02 0.60599E-02
 0.52867E-02 0.43671E-02 0.37437E-02 0.35238E-02 0.33027E-02 0.26724E-02 0.17809E-02 0.11123E-02 0.83131E-03 0.68978E-03
 0.52666E-03 0.44159E-03 0.41694E-03 0.21834E-03 -.11305E-03 -.76807E-04 0.60417E-03 0.13864E-02 0.14451E-02 0.71452E-03
 -.40945E-04 -.20364E-03 0.49338E-04 0.17450E-03 -.27641E-04 -.33373E-03 -.37805E-03 -.30987E-03 -.14313E-03 -.20129E-04
 -.91093E-04 -.23524E-03 -.68762E-04 0.53581E-03 0.11009E-02 0.10328E-02 0.39393E-03 -.14802E-03 -.15498E-03 0.14253E-03
 0.32806E-03 0.35829E-03 0.42100E-03 0.53763E-03 0.63978E-03 0.86592E-03 0.14099E-02 0.21173E-02 0.25791E-02 0.26829E-02
 0.27873E-02 0.32452E-02 0.39731E-02 0.45992E-02 0.48363E-02 0.45992E-02 0.39731E-02 0.32452E-02 0.27873E-02 0.26829E-02
 0.25791E-02 0.21173E-02 0.14099E-02 0.86592E-03 0.63978E-03 0.53763E-03 0.42100E-03 0.35829E-03 0.32806E-03 0.14253E-03
 -.15498E-03 -.14802E-03 0.39393E-03 0.10328E-02 0.11009E-02 0.53581E-03 -.68762E-04 -.23524E-03 -.91093E-04 -.20129E-04
 -.14313E-03 -.30987E-03 -.15529E-03 -.21144E-03 -.30725E-03 -.34310E-03 -.32711E-03 -.28252E-03 -.13370E-03 0.15138E-03
 0.37970E-03 0.30112E-03 -.37654E-04 -.29469E-03 -.23928E-03 0.30574E-05 0.17891E-03 0.21948E-03 0.21335E-03 0.21148E-03
 0.22658E-03 0.34014E-03 0.61793E-03 0.93564E-03 0.10660E-02 0.97499E-03 0.89211E-03 0.10341E-02 0.13649E-02 0.16760E-02
 0.17976E-02 0.16760E-02 0.13649E-02 0.10341E-02 0.89211E-03 0.97499E-03 0.10660E-02 0.93564E-03 0.61793E-03 0.34014E-03
 0.22658E-03 0.21148E-03 0.21335E-03 0.21948E-03 0.17891E-03 0.30574E-05 -.23928E-03 -.29469E-03 -.37654E-04 0.30112E-03
 0.37970E-03 0.15138E-03 -.13370E-03 -.28252E-03 -.32711E-03 -.34310E-03 -.30725E-03 -.21144E-03 0.64400E-04 -.43295E-04
 -.25813E-03 -.38633E-03 -.36157E-03 -.26795E-03 -.19444E-03 -.15645E-03 -.15619E-03 -.22008E-03 -.32685E-03 -.36476E-03
 -.23622E-03 0.93273E-05 0.20333E-03 0.22373E-03 0.10040E-03 -.40650E-04 -.10009E-03 -.68137E-04 -.66759E-05 0.47444E-05
 -.73969E-04 -.21141E-03 -.32866E-03 -.36641E-03 -.33009E-03 -.27283E-03 -.24706E-03 -.27283E-03 -.33009E-03 -.36641E-03
 -.32866E-03 -.21141E-03 -.73969E-04 0.47444E-05 -.66759E-05 -.68137E-04 -.10009E-03 -.40650E-04 0.10040E-03 0.22373E-03
 0.20333E-03 0.93273E-05 -.23622E-03 -.36476E-03 -.32685E-03 -.22008E-03 -.15619E-03 -.15645E-03 -.19444E-03 -.26795E-03
 -.36157E-03 -.38633E-03 -.25813E-03 -.43295E-04 0.12490E-03 0.62017E-04 -.67818E-04 -.15973E-03 -.18097E-03 -.18342E-03
 -.21410E-03 -.26170E-03 -.29947E-03 -.32758E-03 -.33268E-03 -.24375E-03 -.21174E-05 0.31397E-03 0.50070E-03 0.41806E-03
 0.14554E-03 -.97971E-04 -.18228E-03 -.16965E-03 -.19332E-03 -.29315E-03 -.40697E-03 -.48072E-03 -.52594E-03 -.57284E-03
 -.62013E-03 -.65006E-03 -.65890E-03 -.65006E-03 -.62013E-03 -.57284E-03 -.52594E-03 -.48072E-03 -.40697E-03 -.29315E-03
 -.19332E-03 -.16965E-03 -.18228E-03 -.97971E-04 0.14554E-03 0.41806E-03 0.50070E-03 0.31397E-03 -.21174E-05 -.24375E-03
 -.33268E-03 -.32758E-03 -.29947E-03 -.26170E-03 -.21410E-03 -.18342E-03 -.18097E-03 -.15973E-03 -.67818E-04 0.62017E-04
 -.39266E-04 -.43567E-04 -.40675E-04 -.21250E-04 -.22423E-04 -.82353E-04 -.17500E-03 -.23955E-03 -.26105E-03 -.25934E-03
 -.19441E-03 0.34067E-04 0.43277E-03 0.80750E-03 0.89877E-03 0.64240E-03 0.24486E-03 -.23266E-04 -.73593E-04 -.22098E-04
 -.14941E-04 -.89495E-04 -.19471E-03 -.28129E-03 -.33530E-03 -.35395E-03 -.33548E-03 -.29803E-03 -.27879E-03 -.29803E-03
 -.33548E-03 -.35395E-03 -.33530E-03 -.28129E-03 -.19471E-03 -.89495E-04 -.14941E-04 -.22098E-04 -.73593E-04 -.23266E-04
 0.24486E-03 0.64240E-03 0.89877E-03 0.80750E-03 0.43277E-03 0.34067E-04 -.19441E-03 -.25934E-03 -.26105E-03 -.23955E-03
 -.17500E-03 -.82353E-04 -.22423E-04 -.21250E-04 -.40675E-04 -.43567E-04 -.31598E-03 -.30437E-03 -.24292E-03 -.11773E-03
 -.22602E-05 0.10146E-04 -.77711E-04 -.18274E-03 -.24467E-03 -.23354E-03 -.76782E-04 0.29817E-03 0.79917E-03 0.11430E-02
 0.10934E-02 0.70728E-03 0.28235E-03 0.76365E-04 0.12636E-03 0.30949E-03 0.48497E-03 0.55638E-03 0.48507E-03 0.32160E-03
 0.20448E-03 0.26358E-03 0.49917E-03 0.76559E-03 0.88113E-03 0.76559E-03 0.49917E-03 0.26358E-03 0.20448E-03 0.32160E-03
 0.48507E-03 0.55638E-03 0.48497E-03 0.30949E-03 0.12636E-03 0.76365E-04 0.28235E-03 0.70728E-03 0.10934E-02 0.11430E-02
 0.79917E-03 0.29817E-03 -.76782E-04 -.23354E-03 -.24467E-03 -.18274E-03 -.77711E-04 0.10146E-04 -.22602E-05 -.11773E-03
 -.24292E-03 -.30437E-03 -.45975E-03 -.44835E-03 -.37232E-03 -.19109E-03 0.20652E-04 0.12293E-03 0.60485E-04 -.92115E-04
 -.21513E-03 -.21082E-03 -.97305E-05 0.38532E-03 0.82319E-03 0.10536E-02 0.93290E-03 0.57125E-03 0.24019E-03 0.15738E-03
 0.37856E-03 0.82960E-03 0.13516E-02 0.17355E-02 0.18361E-02 0.17257E-02 0.16917E-02 0.20035E-02 0.26492E-02 0.33081E-02
 0.35857E-02 0.33081E-02 0.26492E-02 0.20035E-02 0.16917E-02 0.17257E-02 0.18361E-02 0.17355E-02 0.13516E-02 0.82960E-03
 0.37856E-03 0.15738E-03 0.24019E-03 0.57125E-03 0.93290E-03 0.10536E-02 0.82319E-03 0.38532E-03 -.97305E-05 -.21082E-03
 -.21513E-03 -.92115E-04 0.60485E-04 0.12293E-03 0.20652E-04 -.19109E-03 -.37232E-03 -.44835E-03 -.27786E-03 -.25469E-03
 -.16742E-03 -.56119E-05 0.17244E-03 0.26159E-03 0.20322E-03 0.43887E-04 -.98921E-04 -.11817E-03 0.22780E-04 0.27280E-03
 0.51419E-03 0.62199E-03 0.54156E-03 0.33497E-03 0.16413E-03 0.22535E-03 0.66091E-03 0.14631E-02 0.24212E-02 0.32036E-02
 0.35890E-02 0.36815E-02 0.38764E-02 0.45369E-02 0.56384E-02 0.67096E-02 0.71558E-02 0.67096E-02 0.56384E-02 0.45369E-02
 0.38764E-02 0.36815E-02 0.35890E-02 0.32036E-02 0.24212E-02 0.14631E-02 0.66091E-03 0.22535E-03 0.16413E-03 0.33497E-03
 0.54156E-03 0.62199E-03 0.51419E-03 0.27280E-03 0.22780E-04 -.11817E-03 -.98921E-04 0.43887E-04 0.20322E-03 0.26159E-03
 0.17244E-03 -.56119E-05 -.16742E-03 -.25469E-03 0.18570E-03 0.19831E-03 0.23224E-03 0.28097E-03 0.33305E-03 0.35557E-03
 0.30363E-03 0.17319E-03 0.31777E-04 -.34602E-04 -.44385E-05 0.72525E-04 0.14326E-03 0.18925E-03 0.19800E-03 0.15917E-03
 0.14027E-03 0.33687E-03 0.96510E-03 0.20489E-02 0.33172E-02 0.43534E-02 0.49042E-02 0.51020E-02 0.53969E-02 0.62025E-02
 0.75038E-02 0.87670E-02 0.92945E-02 0.87670E-02 0.75038E-02 0.62025E-02 0.53969E-02 0.51020E-02 0.49042E-02 0.43534E-02
 0.33172E-02 0.20489E-02 0.96510E-03 0.33687E-03 0.14027E-03 0.15917E-03 0.19800E-03 0.18925E-03 0.14326E-03 0.72525E-04
 -.44385E-05 -.34602E-04 0.31777E-04 0.17319E-03 0.30363E-03 0.35557E-03 0.33305E-03 0.28097E-03 0.23224E-03 0.19831E-03
 0.65187E-03 0.59577E-03 0.46335E-03 0.34050E-03 0.29860E-03 0.32530E-03 0.33109E-03 0.24654E-03 0.10019E-03 -.21994E-04
 -.74130E-04 -.70228E-04 -.24074E-04 0.70396E-04 0.18932E-03 0.28116E-03 0.37925E-03 0.67817E-03 0.14089E-02 0.25892E-02
 0.39128E-02 0.49272E-02 0.53715E-02 0.53989E-02 0.54916E-02 0.60962E-02 0.72283E-02 0.83796E-02 0.88681E-02 0.83796E-02
 0.72283E-02 0.60962E-02 0.54916E-02 0.53989E-02 0.53715E-02 0.49272E-02 0.39128E-02 0.25892E-02 0.14089E-02 0.67817E-03
 0.37925E-03 0.28116E-03 0.18932E-03 0.70396E-04 -.24074E-04 -.70228E-04 -.74130E-04 -.21994E-04 0.10019E-03 0.24654E-03
 0.33109E-03 0.32530E-03 0.29860E-03 0.34050E-03 0.46335E-03 0.59577E-03 0.82435E-03 0.68216E-03 0.36953E-03 0.11972E-03
 0.74663E-04 0.18500E-03 0.29610E-03 0.29888E-03 0.19355E-03 0.48477E-04 -.56265E-04 -.47988E-04 0.12148E-03 0.43050E-03
 0.76943E-03 0.10222E-02 0.12087E-02 0.15339E-02 0.22410E-02 0.33582E-02 0.45789E-02 0.54292E-02 0.56273E-02 0.53386E-02
 0.50845E-02 0.53434E-02 0.61554E-02 0.70626E-02 0.74572E-02 0.70626E-02 0.61554E-02 0.53434E-02 0.50845E-02 0.53386E-02
 0.56273E-02 0.54292E-02 0.45789E-02 0.33582E-02 0.22410E-02 0.15339E-02 0.12087E-02 0.10222E-02 0.76943E-03 0.43050E-03
 0.12148E-03 -.47988E-04 -.56265E-04 0.48477E-04 0.19355E-03 0.29888E-03 0.29610E-03 0.18500E-03 0.74663E-04 0.11972E-03
 0.36953E-03 0.68216E-03 0.64391E-03 0.47316E-03 0.11577E-03 -.13416E-03 -.13400E-03 0.39550E-04 0.24616E-03 0.39694E-03
 0.43287E-03 0.32415E-03 0.16292E-03 0.18189E-03 0.57586E-03 0.12911E-02 0.20380E-02 0.25395E-02 0.27763E-02 0.30136E-02
 0.35869E-02 0.45986E-02 0.57554E-02 0.65272E-02 0.65661E-02 0.60358E-02 0.55149E-02 0.55273E-02 0.61217E-02 0.68604E-02
 0.71883E-02 0.68604E-02 0.61217E-02 0.55273E-02 0.55149E-02 0.60358E-02 0.65661E-02 0.65272E-02 0.57554E-02 0.45986E-02
 0.35869E-02 0.30136E-02 0.27763E-02 0.25395E-02 0.20380E-02 0.12911E-02 0.57586E-03 0.18189E-03 0.16292E-03 0.32415E-03
 0.43287E-03 0.39694E-03 0.24616E-03 0.39550E-04 -.13400E-03 -.13416E-03 0.11577E-03 0.47316E-03 0.34643E-03 0.20864E-03
 -.64583E-04 -.22707E-03 -.19043E-03 -.20425E-04 0.23214E-03 0.53531E-03 0.75065E-03 0.71094E-03 0.50579E-03 0.54938E-03
 0.12163E-02 0.24265E-02 0.36714E-02 0.44563E-02 0.47039E-02 0.47825E-02 0.51930E-02 0.61549E-02 0.73750E-02 0.82189E-02
 0.82279E-02 0.75478E-02 0.68301E-02 0.66743E-02 0.71501E-02 0.78136E-02 0.81141E-02 0.78136E-02 0.71501E-02 0.66743E-02
 0.68301E-02 0.75478E-02 0.82279E-02 0.82189E-02 0.73750E-02 0.61549E-02 0.51930E-02 0.47825E-02 0.47039E-02 0.44563E-02
 0.36714E-02 0.24265E-02 0.12163E-02 0.54938E-03 0.50579E-03 0.71094E-03 0.75065E-03 0.53531E-03 0.23214E-03 -.20425E-04
 -.19043E-03 -.22707E-03 -.64583E-04 0.20864E-03 0.26285E-03 0.14498E-03 -.79988E-04 -.19735E-03 -.14850E-03 0.92213E-05
 0.27361E-03 0.64398E-03 0.94607E-03 0.94933E-03 0.74777E-03 0.85292E-03 0.17361E-02 0.33016E-02 0.49086E-02 0.59175E-02
 0.62017E-02 0.62008E-02 0.65466E-02 0.75508E-02 0.89052E-02 0.98676E-02 0.98698E-02 0.90363E-02 0.80898E-02 0.77219E-02
 0.80509E-02 0.86351E-02 0.89110E-02 0.86351E-02 0.80509E-02 0.77219E-02 0.80898E-02 0.90363E-02 0.98698E-02 0.98676E-02
 0.89052E-02 0.75508E-02 0.65466E-02 0.62008E-02 0.62017E-02 0.59175E-02 0.49086E-02 0.33016E-02 0.17361E-02 0.85292E-03
 0.74777E-03 0.94933E-03 0.94607E-03 0.64398E-03 0.27361E-03 0.92213E-05 -.14850E-03 -.19735E-03 -.79988E-04 0.14498E-03
 0.53246E-03 0.37247E-03 0.54563E-04 -.13722E-03 -.10300E-03 0.78313E-04 0.34969E-03 0.68500E-03 0.93985E-03 0.93008E-03
 0.75844E-03 0.90569E-03 0.18218E-02 0.34320E-02 0.51317E-02 0.62847E-02 0.67282E-02 0.68673E-02 0.73319E-02 0.84499E-02
 0.99100E-02 0.10938E-01 0.10929E-01 0.10004E-01 0.89126E-02 0.83891E-02 0.85882E-02 0.90889E-02 0.93364E-02 0.90889E-02
 0.85882E-02 0.83891E-02 0.89126E-02 0.10004E-01 0.10929E-01 0.10938E-01 0.99100E-02 0.84499E-02 0.73319E-02 0.68673E-02
 0.67282E-02 0.62847E-02 0.51317E-02 0.34320E-02 0.18218E-02 0.90569E-03 0.75844E-03 0.93008E-03 0.93985E-03 0.68500E-03
 0.34969E-03 0.78313E-04 -.10300E-03 -.13722E-03 0.54563E-04 0.37247E-03 0.97859E-03 0.75726E-03 0.29600E-03 -.28871E-04
 -.47407E-04 0.14685E-03 0.41706E-03 0.68782E-03 0.85797E-03 0.81908E-03 0.66901E-03 0.79008E-03 0.15596E-02 0.29647E-02
 0.45595E-02 0.58208E-02 0.65570E-02 0.70348E-02 0.77419E-02 0.89471E-02 0.10385E-01 0.11389E-01 0.11444E-01 0.10677E-01
 0.97697E-02 0.93761E-02 0.96222E-02 0.10118E-01 0.10356E-01 0.10118E-01 0.96222E-02 0.93761E-02 0.97697E-02 0.10677E-01
 0.11444E-01 0.11389E-01 0.10385E-01 0.89471E-02 0.77419E-02 0.70348E-02 0.65570E-02 0.58208E-02 0.45595E-02 0.29647E-02
 0.15596E-02 0.79008E-03 0.66901E-03 0.81908E-03 0.85797E-03 0.68782E-03 0.41706E-03 0.14685E-03 -.47407E-04 -.28871E-04
 0.29600E-03 0.75726E-03 0.12523E-02 0.10261E-02 0.53689E-03 0.14875E-03 0.54515E-04 0.19539E-03 0.43828E-03 0.69276E-03
 0.86839E-03 0.88128E-03 0.79973E-03 0.90897E-03 0.15185E-02 0.26824E-02 0.41349E-02 0.54997E-02 0.65645E-02 0.74062E-02
 0.82859E-02 0.93795E-02 0.10543E-01 0.11365E-01 0.11528E-01 0.11144E-01 0.10697E-01 0.10630E-01 0.10996E-01 0.11480E-01
 0.11696E-01 0.11480E-01 0.10996E-01 0.10630E-01 0.10697E-01 0.11144E-01 0.11528E-01 0.11365E-01 0.10543E-01 0.93795E-02
 0.82859E-02 0.74062E-02 0.65645E-02 0.54997E-02 0.41349E-02 0.26824E-02 0.15185E-02 0.90897E-03 0.79973E-03 0.88128E-03
 0.86839E-03 0.69276E-03 0.43828E-03 0.19539E-03 0.54515E-04 0.14875E-03 0.53689E-03 0.10261E-02 0.11219E-02 0.96206E-03
 0.60338E-03 0.28389E-03 0.14930E-03 0.20365E-03 0.40458E-03 0.70930E-03 0.10332E-02 0.12699E-02 0.14173E-02 0.16486E-02
 0.22020E-02 0.31948E-02 0.45411E-02 0.60145E-02 0.73703E-02 0.84575E-02 0.92742E-02 0.99158E-02 0.10438E-01 0.10775E-01
 0.10831E-01 0.10636E-01 0.10368E-01 0.10207E-01 0.10202E-01 0.10269E-01 0.10306E-01 0.10269E-01 0.10202E-01 0.10207E-01
 0.10368E-01 0.10636E-01 0.10831E-01 0.10775E-01 0.10438E-01 0.99158E-02 0.92742E-02 0.84575E-02 0.73703E-02 0.60145E-02
 0.45411E-02 0.31948E-02 0.22020E-02 0.16486E-02 0.14173E-02 0.12699E-02 0.10332E-02 0.70930E-03 0.40458E-03 0.20365E-03
 0.14930E-03 0.28389E-03 0.60338E-03 0.96206E-03 0.66917E-03 0.59498E-03 0.42294E-03 0.25288E-03 0.15466E-03 0.16698E-03
 0.34334E-03 0.73579E-03 0.13153E-02 0.19477E-02 0.24914E-02 0.29315E-02 0.34242E-02 0.42103E-02 0.54488E-02 0.70642E-02
 0.87150E-02 0.99519E-02 0.10487E-01 0.10360E-01 0.98579E-02 0.92551E-02 0.86166E-02 0.78035E-02 0.66391E-02 0.51052E-02
 0.34508E-02 0.21412E-02 0.16397E-02 0.21412E-02 0.34508E-02 0.51052E-02 0.66391E-02 0.78035E-02 0.86166E-02 0.92551E-02
 0.98579E-02 0.10360E-01 0.10487E-01 0.99519E-02 0.87150E-02 0.70642E-02 0.54488E-02 0.42103E-02 0.34242E-02 0.29315E-02
 0.24914E-02 0.19477E-02 0.13153E-02 0.73579E-03 0.34334E-03 0.16698E-03 0.15466E-03 0.25288E-03 0.42294E-03 0.59498E-03
 0.23198E-03 0.21618E-03 0.18005E-03 0.14298E-03 0.11763E-03 0.13718E-03 0.30450E-03 0.77417E-03 0.16189E-02 0.26838E-02
 0.36209E-02 0.41601E-02 0.44021E-02 0.48214E-02 0.59058E-02 0.77110E-02 0.97170E-02 0.11119E-01 0.11330E-01 0.10311E-01
 0.85059E-02 0.64296E-02 0.42220E-02 0.15243E-02 -.21804E-02 -.69698E-02 -.12087E-01 -.16109E-01 -.17643E-01 -.16109E-01
 -.12087E-01 -.69698E-02 -.21804E-02 0.15243E-02 0.42220E-02 0.64296E-02 0.85059E-02 0.10311E-01 0.11330E-01 0.11119E-01
 0.97170E-02 0.77110E-02 0.59058E-02 0.48214E-02 0.44021E-02 0.41601E-02 0.36209E-02 0.26838E-02 0.16189E-02 0.77417E-03
 0.30450E-03 0.13718E-03 0.11763E-03 0.14298E-03 0.18005E-03 0.21618E-03 0.13752E-03 0.15662E-03 0.19528E-03 0.21838E-03
 0.20977E-03 0.20341E-03 0.32799E-03 0.80921E-03 0.18054E-02 0.31385E-02 0.42617E-02 0.46819E-02 0.45015E-02 0.44674E-02
 0.53725E-02 0.73514E-02 0.97027E-02 0.11321E-01 0.11333E-01 0.95141E-02 0.62845E-02 0.22561E-02 -.24053E-02 -.82664E-02
 -.16126E-01 -.25965E-01 -.36230E-01 -.44177E-01 -.47184E-01 -.44177E-01 -.36230E-01 -.25965E-01 -.16126E-01 -.82664E-02
 -.24053E-02 0.22561E-02 0.62845E-02 0.95141E-02 0.11333E-01 0.11321E-01 0.97027E-02 0.73514E-02 0.53725E-02 0.44674E-02
 0.45015E-02 0.46819E-02 0.42617E-02 0.31385E-02 0.18054E-02 0.80921E-03 0.32799E-03 0.20341E-03 0.20977E-03 0.21838E-03
 0.19528E-03 0.15662E-03 0.43978E-03 0.49606E-03 0.59425E-03 0.61338E-03 0.52076E-03 0.39700E-03 0.41131E-03 0.81154E-03
 0.17782E-02 0.31145E-02 0.41717E-02 0.43539E-02 0.37994E-02 0.34285E-02 0.41864E-02 0.62280E-02 0.87746E-02 0.10586E-01
 0.10556E-01 0.81503E-02 0.35680E-02 -.25976E-02 -.10154E-01 -.19816E-01 -.32584E-01 -.48240E-01 -.64305E-01 -.76605E-01
 -.81234E-01 -.76605E-01 -.64305E-01 -.48240E-01 -.32584E-01 -.19816E-01 -.10154E-01 -.25976E-02 0.35680E-02 0.81503E-02
 0.10556E-01 0.10586E-01 0.87746E-02 0.62280E-02 0.41864E-02 0.34285E-02 0.37994E-02 0.43539E-02 0.41717E-02 0.31145E-02
 0.17782E-02 0.81154E-03 0.41131E-03 0.39700E-03 0.52076E-03 0.61338E-03 0.59425E-03 0.49606E-03 0.87497E-03 0.97193E-03
 0.11290E-02 0.11216E-02 0.90280E-03 0.62396E-03 0.50490E-03 0.78217E-03 0.16121E-02 0.27937E-02 0.36772E-02 0.36686E-02
 0.29346E-02 0.24313E-02 0.31057E-02 0.51026E-02 0.76733E-02 0.95901E-02 0.95966E-02 0.68407E-02 0.12468E-02 -.66549E-02
 -.16636E-01 -.29485E-01 -.46326E-01 -.66742E-01 -.87492E-01 -.10327     -.10919     -.10327     -.87492E-01 -.66742E-01
 -.46326E-01 -.29485E-01 -.16636E-01 -.66549E-02 0.12468E-02 0.68407E-02 0.95966E-02 0.95901E-02 0.76733E-02 0.51026E-02
 0.31057E-02 0.24313E-02 0.29346E-02 0.36686E-02 0.36772E-02 0.27937E-02 0.16121E-02 0.78217E-03 0.50490E-03 0.62396E-03
 0.90280E-03 0.11216E-02 0.11290E-02 0.97193E-03 0.10762E-02 0.11920E-02 0.13761E-02 0.13555E-02 0.10769E-02 0.72572E-03
 0.54563E-03 0.76325E-03 0.15177E-02 0.26096E-02 0.34066E-02 0.33318E-02 0.25603E-02 0.20381E-02 0.26876E-02 0.46458E-02
 0.71962E-02 0.91407E-02 0.91713E-02 0.62991E-02 0.32403E-03 -.82551E-02 -.19191E-01 -.33295E-01 -.51730E-01 -.73996E-01
 -.96556E-01 -.11368     -.12009     -.11368     -.96556E-01 -.73996E-01 -.51730E-01 -.33295E-01 -.19191E-01 -.82551E-02
 0.32403E-03 0.62991E-02 0.91713E-02 0.91407E-02 0.71962E-02 0.46458E-02 0.26876E-02 0.20381E-02 0.25603E-02 0.33318E-02
 0.34066E-02 0.26096E-02 0.15177E-02 0.76325E-03 0.54563E-03 0.72572E-03 0.10769E-02 0.13555E-02 0.13761E-02 0.11920E-02
 0.87497E-03 0.97193E-03 0.11290E-02 0.11216E-02 0.90280E-03 0.62396E-03 0.50490E-03 0.78217E-03 0.16121E-02 0.27937E-02
 0.36772E-02 0.36686E-02 0.29346E-02 0.24313E-02 0.31057E-02 0.51026E-02 0.76733E-02 0.95901E-02 0.95966E-02 0.68407E-02
 0.12468E-02 -.66549E-02 -.16636E-01 -.29485E-01 -.46326E-01 -.66742E-01 -.87492E-01 -.10327     -.10919     -.10327    
 -.87492E-01 -.66742E-01 -.46326E-01 -.29485E-01 -.16636E-01 -.66549E-02 0.12468E-02 0.68407E-02 0.95966E-02 0.95901E-02
 0.76733E-02 0.51026E-02 0.31057E-02 0.24313E-02 0.29346E-02 0.36686E-02 0.36772E-02 0.27937E-02 0.16121E-02 0.78217E-03
 0.50490E-03 0.62396E-03 0.90280E-03 0.11216E-02 0.11290E-02 0.97193E-03 0.43978E-03 0.49606E-03 0.59425E-03 0.61338E-03
 0.52076E-03 0.39700E-03 0.41131E-03 0.81154E-03 0.17782E-02 0.31145E-02 0.41717E-02 0.43539E-02 0.37994E-02 0.34285E-02
 0.41864E-02 0.62280E-02 0.87746E-02 0.10586E-01 0.10556E-01 0.81503E-02 0.35680E-02 -.25976E-02 -.10154E-01 -.19816E-01
 -.32584E-01 -.48240E-01 -.64305E-01 -.76605E-01 -.81234E-01 -.76605E-01 -.64305E-01 -.48240E-01 -.32584E-01 -.19816E-01
 -.10154E-01 -.25976E-02 0.35680E-02 0.81503E-02 0.10556E-01 0.10586E-01 0.87746E-02 0.62280E-02 0.41864E-02 0.34285E-02
 0.37994E-02 0.43539E-02 0.41717E-02 0.31145E-02 0.17782E-02 0.81154E-03 0.41131E-03 0.39700E-03 0.52076E-03 0.61338E-03
 0.59425E-03 0.49606E-03 0.13752E-03 0.15662E-03 0.19528E-03 0.21838E-03 0.20977E-03 0.20341E-03 0.32799E-03 0.80921E-03
 0.18054E-02 0.31385E-02 0.42617E-02 0.46819E-02 0.45015E-02 0.44674E-02 0.53725E-02 0.73514E-02 0.97027E-02 0.11321E-01
 0.11333E-01 0.95141E-02 0.62845E-02 0.22561E-02 -.24053E-02 -.82664E-02 -.16126E-01 -.25965E-01 -.36230E-01 -.44177E-01
 -.47184E-01 -.44177E-01 -.36230E-01 -.25965E-01 -.16126E-01 -.82664E-02 -.24053E-02 0.22561E-02 0.62845E-02 0.95141E-02
 0.11333E-01 0.11321E-01 0.97027E-02 0.73514E-02 0.53725E-02 0.44674E-02 0.45015E-02 0.46819E-02 0.42617E-02 0.31385E-02
 0.18054E-02 0.80921E-03 0.32799E-03 0.20341E-03 0.20977E-03 0.21838E-03 0.19528E-03 0.15662E-03 0.23198E-03 0.21618E-03
 0.18005E-03 0.14298E-03 0.11763E-03 0.13718E-03 0.30450E-03 0.77417E-03 0.16189E-02 0.26838E-02 0.36209E-02 0.41601E-02
 0.44021E-02 0.48214E-02 0.59058E-02 0.77110E-02 0.97170E-02 0.11119E-01 0.11330E-01 0.10311E-01 0.85059E-02 0.64296E-02
 0.42220E-02 0.15243E-02 -.21804E-02 -.69698E-02 -.12087E-01 -.16109E-01 -.17643E-01 -.16109E-01 -.12087E-01 -.69698E-02
 -.21804E-02 0.15243E-02 0.42220E-02 0.64296E-02 0.85059E-02 0.10311E-01 0.11330E-01 0.11119E-01 0.97170E-02 0.77110E-02
 0.59058E-02 0.48214E-02 0.44021E-02 0.41601E-02 0.36209E-02 0.26838E-02 0.16189E-02 0.77417E-03 0.30450E-03 0.13718E-03
 0.11763E-03 0.14298E-03 0.18005E-03 0.21618E-03 0.66917E-03 0.59498E-03 0.42294E-03 0.25288E-03 0.15466E-03 0.16698E-03
 0.34334E-03 0.73579E-03 0.13153E-02 0.19477E-02 0.24914E-02 0.29315E-02 0.34242E-02 0.42103E-02 0.54488E-02 0.70642E-02
 0.87150E-02 0.99519E-02 0.10487E-01 0.10360E-01 0.98579E-02 0.92551E-02 0.86166E-02 0.78035E-02 0.66391E-02 0.51052E-02
 0.34508E-02 0.21412E-02 0.16397E-02 0.21412E-02 0.34508E-02 0.51052E-02 0.66391E-02 0.78035E-02 0.86166E-02 0.92551E-02
 0.98579E-02 0.10360E-01 0.10487E-01 0.99519E-02 0.87150E-02 0.70642E-02 0.54488E-02 0.42103E-02 0.34242E-02 0.29315E-02
 0.24914E-02 0.19477E-02 0.13153E-02 0.73579E-03 0.34334E-03 0.16698E-03 0.15466E-03 0.25288E-03 0.42294E-03 0.59498E-03
 0.11219E-02 0.96206E-03 0.60338E-03 0.28389E-03 0.14930E-03 0.20365E-03 0.40458E-03 0.70930E-03 0.10332E-02 0.12699E-02
 0.14173E-02 0.16486E-02 0.22020E-02 0.31948E-02 0.45411E-02 0.60145E-02 0.73703E-02 0.84575E-02 0.92742E-02 0.99158E-02
 0.10438E-01 0.10775E-01 0.10831E-01 0.10636E-01 0.10368E-01 0.10207E-01 0.10202E-01 0.10269E-01 0.10306E-01 0.10269E-01
 0.10202E-01 0.10207E-01 0.10368E-01 0.10636E-01 0.10831E-01 0.10775E-01 0.10438E-01 0.99158E-02 0.92742E-02 0.84575E-02
 0.73703E-02 0.60145E-02 0.45411E-02 0.31948E-02 0.22020E-02 0.16486E-02 0.14173E-02 0.12699E-02 0.10332E-02 0.70930E-03
 0.40458E-03 0.20365E-03 0.14930E-03 0.28389E-03 0.60338E-03 0.96206E-03 0.12523E-02 0.10261E-02 0.53689E-03 0.14875E-03
 0.54515E-04 0.19539E-03 0.43828E-03 0.69276E-03 0.86839E-03 0.88128E-03 0.79973E-03 0.90897E-03 0.15185E-02 0.26824E-02
 0.41349E-02 0.54997E-02 0.65645E-02 0.74062E-02 0.82859E-02 0.93795E-02 0.10543E-01 0.11365E-01 0.11528E-01 0.11144E-01
 0.10697E-01 0.10630E-01 0.10996E-01 0.11480E-01 0.11696E-01 0.11480E-01 0.10996E-01 0.10630E-01 0.10697E-01 0.11144E-01
 0.11528E-01 0.11365E-01 0.10543E-01 0.93795E-02 0.82859E-02 0.74062E-02 0.65645E-02 0.54997E-02 0.41349E-02 0.26824E-02
 0.15185E-02 0.90897E-03 0.79973E-03 0.88128E-03 0.86839E-03 0.69276E-03 0.43828E-03 0.19539E-03 0.54515E-04 0.14875E-03
 0.53689E-03 0.10261E-02 0.97859E-03 0.75726E-03 0.29600E-03 -.28871E-04 -.47407E-04 0.14685E-03 0.41706E-03 0.68782E-03
 0.85797E-03 0.81908E-03 0.66901E-03 0.79008E-03 0.15596E-02 0.29647E-02 0.45595E-02 0.58208E-02 0.65570E-02 0.70348E-02
 0.77419E-02 0.89471E-02 0.10385E-01 0.11389E-01 0.11444E-01 0.10677E-01 0.97697E-02 0.93761E-02 0.96222E-02 0.10118E-01
 0.10356E-01 0.10118E-01 0.96222E-02 0.93761E-02 0.97697E-02 0.10677E-01 0.11444E-01 0.11389E-01 0.10385E-01 0.89471E-02
 0.77419E-02 0.70348E-02 0.65570E-02 0.58208E-02 0.45595E-02 0.29647E-02 0.15596E-02 0.79008E-03 0.66901E-03 0.81908E-03
 0.85797E-03 0.68782E-03 0.41706E-03 0.14685E-03 -.47407E-04 -.28871E-04 0.29600E-03 0.75726E-03 0.53246E-03 0.37247E-03
 0.54563E-04 -.13722E-03 -.10300E-03 0.78313E-04 0.34969E-03 0.68500E-03 0.93985E-03 0.93008E-03 0.75844E-03 0.90569E-03
 0.18218E-02 0.34320E-02 0.51317E-02 0.62847E-02 0.67282E-02 0.68673E-02 0.73319E-02 0.84499E-02 0.99100E-02 0.10938E-01
 0.10929E-01 0.10004E-01 0.89126E-02 0.83891E-02 0.85882E-02 0.90889E-02 0.93364E-02 0.90889E-02 0.85882E-02 0.83891E-02
 0.89126E-02 0.10004E-01 0.10929E-01 0.10938E-01 0.99100E-02 0.84499E-02 0.73319E-02 0.68673E-02 0.67282E-02 0.62847E-02
 0.51317E-02 0.34320E-02 0.18218E-02 0.90569E-03 0.75844E-03 0.93008E-03 0.93985E-03 0.68500E-03 0.34969E-03 0.78313E-04
 -.10300E-03 -.13722E-03 0.54563E-04 0.37247E-03 0.26285E-03 0.14498E-03 -.79988E-04 -.19735E-03 -.14850E-03 0.92213E-05
 0.27361E-03 0.64398E-03 0.94607E-03 0.94933E-03 0.74777E-03 0.85292E-03 0.17361E-02 0.33016E-02 0.49086E-02 0.59175E-02
 0.62017E-02 0.62008E-02 0.65466E-02 0.75508E-02 0.89052E-02 0.98676E-02 0.98698E-02 0.90363E-02 0.80898E-02 0.77219E-02
 0.80509E-02 0.86351E-02 0.89110E-02 0.86351E-02 0.80509E-02 0.77219E-02 0.80898E-02 0.90363E-02 0.98698E-02 0.98676E-02
 0.89052E-02 0.75508E-02 0.65466E-02 0.62008E-02 0.62017E-02 0.59175E-02 0.49086E-02 0.33016E-02 0.17361E-02 0.85292E-03
 0.74777E-03 0.94933E-03 0.94607E-03 0.64398E-03 0.27361E-03 0.92213E-05 -.14850E-03 -.19735E-03 -.79988E-04 0.14498E-03
 0.34643E-03 0.20864E-03 -.64583E-04 -.22707E-03 -.19043E-03 -.20425E-04 0.23214E-03 0.53531E-03 0.75065E-03 0.71094E-03
 0.50579E-03 0.54938E-03 0.12163E-02 0.24265E-02 0.36714E-02 0.44563E-02 0.47039E-02 0.47825E-02 0.51930E-02 0.61549E-02
 0.73750E-02 0.82189E-02 0.82279E-02 0.75478E-02 0.68301E-02 0.66743E-02 0.71501E-02 0.78136E-02 0.81141E-02 0.78136E-02
 0.71501E-02 0.66743E-02 0.68301E-02 0.75478E-02 0.82279E-02 0.82189E-02 0.73750E-02 0.61549E-02 0.51930E-02 0.47825E-02
 0.47039E-02 0.44563E-02 0.36714E-02 0.24265E-02 0.12163E-02 0.54938E-03 0.50579E-03 0.71094E-03 0.75065E-03 0.53531E-03
 0.23214E-03 -.20425E-04 -.19043E-03 -.22707E-03 -.64583E-04 0.20864E-03 0.64391E-03 0.47316E-03 0.11577E-03 -.13416E-03
 -.13400E-03 0.39550E-04 0.24616E-03 0.39694E-03 0.43287E-03 0.32415E-03 0.16292E-03 0.18189E-03 0.57586E-03 0.12911E-02
 0.20380E-02 0.25395E-02 0.27763E-02 0.30136E-02 0.35869E-02 0.45986E-02 0.57554E-02 0.65272E-02 0.65661E-02 0.60358E-02
 0.55149E-02 0.55273E-02 0.61217E-02 0.68604E-02 0.71883E-02 0.68604E-02 0.61217E-02 0.55273E-02 0.55149E-02 0.60358E-02
 0.65661E-02 0.65272E-02 0.57554E-02 0.45986E-02 0.35869E-02 0.30136E-02 0.27763E-02 0.25395E-02 0.20380E-02 0.12911E-02
 0.57586E-03 0.18189E-03 0.16292E-03 0.32415E-03 0.43287E-03 0.39694E-03 0.24616E-03 0.39550E-04 -.13400E-03 -.13416E-03
 0.11577E-03 0.47316E-03 0.82435E-03 0.68216E-03 0.36953E-03 0.11972E-03 0.74663E-04 0.18500E-03 0.29610E-03 0.29888E-03
 0.19355E-03 0.48477E-04 -.56265E-04 -.47988E-04 0.12148E-03 0.43050E-03 0.76943E-03 0.10222E-02 0.12087E-02 0.15339E-02
 0.22410E-02 0.33582E-02 0.45789E-02 0.54292E-02 0.56273E-02 0.53386E-02 0.50845E-02 0.53434E-02 0.61554E-02 0.70626E-02
 0.74572E-02 0.70626E-02 0.61554E-02 0.53434E-02 0.50845E-02 0.53386E-02 0.56273E-02 0.54292E-02 0.45789E-02 0.33582E-02
 0.22410E-02 0.15339E-02 0.12087E-02 0.10222E-02 0.76943E-03 0.43050E-03 0.12148E-03 -.47988E-04 -.56265E-04 0.48477E-04
 0.19355E-03 0.29888E-03 0.29610E-03 0.18500E-03 0.74663E-04 0.11972E-03 0.36953E-03 0.68216E-03 0.65187E-03 0.59577E-03
 0.46335E-03 0.34050E-03 0.29860E-03 0.32530E-03 0.33109E-03 0.24654E-03 0.10019E-03 -.21994E-04 -.74130E-04 -.70228E-04
 -.24074E-04 0.70396E-04 0.18932E-03 0.28116E-03 0.37925E-03 0.67817E-03 0.14089E-02 0.25892E-02 0.39128E-02 0.49272E-02
 0.53715E-02 0.53989E-02 0.54916E-02 0.60962E-02 0.72283E-02 0.83796E-02 0.88681E-02 0.83796E-02 0.72283E-02 0.60962E-02
 0.54916E-02 0.53989E-02 0.53715E-02 0.49272E-02 0.39128E-02 0.25892E-02 0.14089E-02 0.67817E-03 0.37925E-03 0.28116E-03
 0.18932E-03 0.70396E-04 -.24074E-04 -.70228E-04 -.74130E-04 -.21994E-04 0.10019E-03 0.24654E-03 0.33109E-03 0.32530E-03
 0.29860E-03 0.34050E-03 0.46335E-03 0.59577E-03 0.18570E-03 0.19831E-03 0.23224E-03 0.28097E-03 0.33305E-03 0.35557E-03
 0.30363E-03 0.17319E-03 0.31777E-04 -.34602E-04 -.44385E-05 0.72525E-04 0.14326E-03 0.18925E-03 0.19800E-03 0.15917E-03
 0.14027E-03 0.33687E-03 0.96510E-03 0.20489E-02 0.33172E-02 0.43534E-02 0.49042E-02 0.51020E-02 0.53969E-02 0.62025E-02
 0.75038E-02 0.87670E-02 0.92945E-02 0.87670E-02 0.75038E-02 0.62025E-02 0.53969E-02 0.51020E-02 0.49042E-02 0.43534E-02
 0.33172E-02 0.20489E-02 0.96510E-03 0.33687E-03 0.14027E-03 0.15917E-03 0.19800E-03 0.18925E-03 0.14326E-03 0.72525E-04
 -.44385E-05 -.34602E-04 0.31777E-04 0.17319E-03 0.30363E-03 0.35557E-03 0.33305E-03 0.28097E-03 0.23224E-03 0.19831E-03
 -.27786E-03 -.25469E-03 -.16742E-03 -.56119E-05 0.17244E-03 0.26159E-03 0.20322E-03 0.43887E-04 -.98921E-04 -.11817E-03
 0.22780E-04 0.27280E-03 0.51419E-03 0.62199E-03 0.54156E-03 0.33497E-03 0.16413E-03 0.22535E-03 0.66091E-03 0.14631E-02
 0.24212E-02 0.32036E-02 0.35890E-02 0.36815E-02 0.38764E-02 0.45369E-02 0.56384E-02 0.67096E-02 0.71558E-02 0.67096E-02
 0.56384E-02 0.45369E-02 0.38764E-02 0.36815E-02 0.35890E-02 0.32036E-02 0.24212E-02 0.14631E-02 0.66091E-03 0.22535E-03
 0.16413E-03 0.33497E-03 0.54156E-03 0.62199E-03 0.51419E-03 0.27280E-03 0.22780E-04 -.11817E-03 -.98921E-04 0.43887E-04
 0.20322E-03 0.26159E-03 0.17244E-03 -.56119E-05 -.16742E-03 -.25469E-03 -.45975E-03 -.44835E-03 -.37232E-03 -.19109E-03
 0.20652E-04 0.12293E-03 0.60485E-04 -.92115E-04 -.21513E-03 -.21082E-03 -.97305E-05 0.38532E-03 0.82319E-03 0.10536E-02
 0.93290E-03 0.57125E-03 0.24019E-03 0.15738E-03 0.37856E-03 0.82960E-03 0.13516E-02 0.17355E-02 0.18361E-02 0.17257E-02
 0.16917E-02 0.20035E-02 0.26492E-02 0.33081E-02 0.35857E-02 0.33081E-02 0.26492E-02 0.20035E-02 0.16917E-02 0.17257E-02
 0.18361E-02 0.17355E-02 0.13516E-02 0.82960E-03 0.37856E-03 0.15738E-03 0.24019E-03 0.57125E-03 0.93290E-03 0.10536E-02
 0.82319E-03 0.38532E-03 -.97305E-05 -.21082E-03 -.21513E-03 -.92115E-04 0.60485E-04 0.12293E-03 0.20652E-04 -.19109E-03
 -.37232E-03 -.44835E-03 -.31598E-03 -.30437E-03 -.24292E-03 -.11773E-03 -.22602E-05 0.10146E-04 -.77711E-04 -.18274E-03
 -.24467E-03 -.23354E-03 -.76782E-04 0.29817E-03 0.79917E-03 0.11430E-02 0.10934E-02 0.70728E-03 0.28235E-03 0.76365E-04
 0.12636E-03 0.30949E-03 0.48497E-03 0.55638E-03 0.48507E-03 0.32160E-03 0.20448E-03 0.26358E-03 0.49917E-03 0.76559E-03
 0.88113E-03 0.76559E-03 0.49917E-03 0.26358E-03 0.20448E-03 0.32160E-03 0.48507E-03 0.55638E-03 0.48497E-03 0.30949E-03
 0.12636E-03 0.76365E-04 0.28235E-03 0.70728E-03 0.10934E-02 0.11430E-02 0.79917E-03 0.29817E-03 -.76782E-04 -.23354E-03
 -.24467E-03 -.18274E-03 -.77711E-04 0.10146E-04 -.22602E-05 -.11773E-03 -.24292E-03 -.30437E-03 -.39266E-04 -.43567E-04
 -.40675E-04 -.21250E-04 -.22423E-04 -.82353E-04 -.17500E-03 -.23955E-03 -.26105E-03 -.25934E-03 -.19441E-03 0.34067E-04
 0.43277E-03 0.80750E-03 0.89877E-03 0.64240E-03 0.24486E-03 -.23266E-04 -.73593E-04 -.22098E-04 -.14941E-04 -.89495E-04
 -.19471E-03 -.28129E-03 -.33530E-03 -.35395E-03 -.33548E-03 -.29803E-03 -.27879E-03 -.29803E-03 -.33548E-03 -.35395E-03
 -.33530E-03 -.28129E-03 -.19471E-03 -.89495E-04 -.14941E-04 -.22098E-04 -.73593E-04 -.23266E-04 0.24486E-03 0.64240E-03