h2                                      
   1.0000000000000000     
     6.740000    0.000000    0.000000
     0.000000    6.000000    0.000000
     0.000000    0.000000    6.000000
   H 
     2
Direct
  0.445104  0.500000  0.500000
  0.554896  0.500000  0.500000

   56   48   48
 -.46906532991E-03 -.33372813945E-03 -.27641049666E-04 0.17449886513E-03 0.49337662047E-04
 -.20363589415E-03 -.40944723110E-04 0.71451648588E-03 0.14451254102E-02 0.13863889198E-02
 0.60417442100E-03 -.76806630519E-04 -.11305187202E-03 0.21833857667E-03 0.41694444656E-03
 0.44158855804E-03 0.52666479623E-03 0.68978315353E-03 0.83130531828E-03 0.11123475052E-02
 0.17808645838E-02 0.26724089108E-02 0.33027132367E-02 0.35238054128E-02 0.37436807598E-02
 0.43671170260E-02 0.52866967888E-02 0.60598741307E-02 0.63503195339E-02 0.60598741307E-02
 0.52866967888E-02 0.43671170260E-02 0.37436807598E-02 0.35238054128E-02 0.33027132367E-02
 0.26724089108E-02 0.17808645838E-02 0.11123475052E-02 0.83130531828E-03 0.68978315352E-03
 0.52666479624E-03 0.44158855803E-03 0.41694444656E-03 0.21833857668E-03 -.11305187203E-03
 -.76806630520E-04 0.60417442100E-03 0.13863889198E-02 0.14451254102E-02 0.71451648588E-03
 -.40944723106E-04 -.20363589415E-03 0.49337662046E-04 0.17449886513E-03 -.27641049675E-04
 -.33372813945E-03 -.37805441361E-03 -.30987351031E-03 -.14313011473E-03 -.20129495396E-04
 -.91092545394E-04 -.23523720127E-03 -.68762453986E-04 0.53580766175E-03 0.11009105378E-02
 0.10327795397E-02 0.39393134345E-03 -.14801685218E-03 -.15498408237E-03 0.14252628799E-03
 0.32805839153E-03 0.35828750155E-03 0.42100037149E-03 0.53763167562E-03 0.63977566536E-03
 0.86592105626E-03 0.14098875168E-02 0.21172797681E-02 0.25791165511E-02 0.26828911693E-02
 0.27873061847E-02 0.32452085246E-02 0.39731491827E-02 0.45992010017E-02 0.48362755715E-02
 0.45992010017E-02 0.39731491827E-02 0.32452085246E-02 0.27873061847E-02 0.26828911694E-02
 0.25791165511E-02 0.21172797681E-02 0.14098875168E-02 0.86592105627E-03 0.63977566536E-03
 0.53763167562E-03 0.42100037149E-03 0.35828750154E-03 0.32805839153E-03 0.14252628800E-03
 -.15498408237E-03 -.14801685218E-03 0.39393134346E-03 0.10327795397E-02 0.11009105378E-02
 0.53580766176E-03 -.68762453979E-04 -.23523720127E-03 -.91092545392E-04 -.20129495392E-04
 -.14313011473E-03 -.30987351031E-03 -.15528651946E-03 -.21143845915E-03 -.30724871890E-03
 -.34310017921E-03 -.32710890789E-03 -.28251718238E-03 -.13369959816E-03 0.15137515179E-03
 0.37969958558E-03 0.30111570319E-03 -.37654299381E-04 -.29469425903E-03 -.23927643403E-03
 0.30574091170E-05 0.17891340552E-03 0.21948319664E-03 0.21335334633E-03 0.21148099193E-03
 0.22657960220E-03 0.34014196938E-03 0.61792504598E-03 0.93563848163E-03 0.10660461170E-02
 0.97499042096E-03 0.89210546903E-03 0.10341157189E-02 0.13649047324E-02 0.16760335211E-02
 0.17975727977E-02 0.16760335211E-02 0.13649047324E-02 0.10341157189E-02 0.89210546904E-03
 0.97499042097E-03 0.10660461171E-02 0.93563848164E-03 0.61792504599E-03 0.34014196938E-03
 0.22657960221E-03 0.21148099193E-03 0.21335334633E-03 0.21948319663E-03 0.17891340552E-03
 0.30574091200E-05 -.23927643403E-03 -.29469425903E-03 -.37654299377E-04 0.30111570319E-03
 0.37969958559E-03 0.15137515180E-03 -.13369959815E-03 -.28251718238E-03 -.32710890788E-03
 -.34310017921E-03 -.30724871890E-03 -.21143845916E-03 0.64400365654E-04 -.43294749551E-04
 -.25813467685E-03 -.38633375287E-03 -.36156855121E-03 -.26795351660E-03 -.19444204193E-03
 -.15645235529E-03 -.15619208594E-03 -.22007983332E-03 -.32685158318E-03 -.36475533237E-03
 -.23621854270E-03 0.93273220044E-05 0.20333111837E-03 0.22373272300E-03 0.10040246783E-03
 -.40649955267E-04 -.10009475153E-03 -.68136731765E-04 -.66758558691E-05 0.47443918129E-05
 -.73969228509E-04 -.21140736170E-03 -.32866452613E-03 -.36640791726E-03 -.33008613306E-03
 -.27282752775E-03 -.24706077805E-03 -.27282752773E-03 -.33008613305E-03 -.36640791727E-03
 -.32866452613E-03 -.21140736170E-03 -.73969228503E-04 0.47443918153E-05 -.66758558626E-05
 -.68136731760E-04 -.10009475153E-03 -.40649955269E-04 0.10040246783E-03 0.22373272299E-03
 0.20333111836E-03 0.93273220073E-05 -.23621854271E-03 -.36475533237E-03 -.32685158317E-03
 -.22007983331E-03 -.15619208593E-03 -.15645235528E-03 -.19444204191E-03 -.26795351658E-03
 -.36156855120E-03 -.38633375286E-03 -.25813467685E-03 -.43294749550E-04 0.12490082479E-03
 0.62016644674E-04 -.67818425583E-04 -.15973388052E-03 -.18097127943E-03 -.18342152086E-03
 -.21409745709E-03 -.26169812763E-03 -.29946553113E-03 -.32758046071E-03 -.33267804113E-03
 -.24375406625E-03 -.21173802548E-05 0.31396706074E-03 0.50069741787E-03 0.41805666571E-03
 0.14553960472E-03 -.97971287435E-04 -.18227633322E-03 -.16965430662E-03 -.19331997522E-03
 -.29315306807E-03 -.40696740261E-03 -.48072164083E-03 -.52594005604E-03 -.57283721839E-03
 -.62013369878E-03 -.65006267147E-03 -.65889946432E-03 -.65006267146E-03 -.62013369878E-03
 -.57283721839E-03 -.52594005604E-03 -.48072164084E-03 -.40696740261E-03 -.29315306807E-03
 -.19331997522E-03 -.16965430662E-03 -.18227633322E-03 -.97971287437E-04 0.14553960472E-03
 0.41805666571E-03 0.50069741787E-03 0.31396706074E-03 -.21173802564E-05 -.24375406625E-03
 -.33267804112E-03 -.32758046071E-03 -.29946553112E-03 -.26169812761E-03 -.21409745708E-03
 -.18342152084E-03 -.18097127942E-03 -.15973388052E-03 -.67818425577E-04 0.62016644676E-04
 -.39266213463E-04 -.43567487571E-04 -.40674942419E-04 -.21250121658E-04 -.22423033186E-04
 -.82353083782E-04 -.17500200379E-03 -.23954640297E-03 -.26104689320E-03 -.25933594872E-03
 -.19440992782E-03 0.34067014151E-04 0.43277135174E-03 0.80749575092E-03 0.89876681315E-03
 0.64239685779E-03 0.24486127708E-03 -.23265842845E-04 -.73592832174E-04 -.22097832993E-04
 -.14940606410E-04 -.89495416521E-04 -.19471147205E-03 -.28128913267E-03 -.33530108711E-03
 -.35394921946E-03 -.33548412388E-03 -.29802611514E-03 -.27879278927E-03 -.29802611514E-03
 -.33548412388E-03 -.35394921946E-03 -.33530108712E-03 -.28128913267E-03 -.19471147205E-03
 -.89495416528E-04 -.14940606413E-04 -.22097832993E-04 -.73592832176E-04 -.23265842848E-04
 0.24486127708E-03 0.64239685778E-03 0.89876681315E-03 0.80749575092E-03 0.43277135174E-03
 0.34067014151E-04 -.19440992781E-03 -.25933594871E-03 -.26104689320E-03 -.23954640295E-03
 -.17500200377E-03 -.82353083770E-04 -.22423033175E-04 -.21250121651E-04 -.40674942414E-04
 -.43567487570E-04 -.31597730644E-03 -.30437223718E-03 -.24291963292E-03 -.11772731999E-03
 -.22602193756E-05 0.10145949059E-04 -.77711307124E-04 -.18273521949E-03 -.24466764897E-03
 -.23353901991E-03 -.76781545909E-04 0.29816742791E-03 0.79916893379E-03 0.11429948061E-02
 0.10934207861E-02 0.70727785009E-03 0.28234629727E-03 0.76364858143E-04 0.12635876704E-03
 0.30949287814E-03 0.48496529813E-03 0.55637649336E-03 0.48506574327E-03 0.32159976250E-03
 0.20447886442E-03 0.26357946545E-03 0.49917338860E-03 0.76558670733E-03 0.88112666084E-03
 0.76558670732E-03 0.49917338858E-03 0.26357946544E-03 0.20447886442E-03 0.32159976249E-03
 0.48506574325E-03 0.55637649335E-03 0.48496529812E-03 0.30949287813E-03 0.12635876704E-03
 0.76364858139E-04 0.28234629727E-03 0.70727785009E-03 0.10934207861E-02 0.11429948061E-02
 0.79916893379E-03 0.29816742791E-03 -.76781545904E-04 -.23353901991E-03 -.24466764897E-03
 -.18273521949E-03 -.77711307115E-04 0.10145949066E-04 -.22602193685E-05 -.11772731999E-03
 -.24291963291E-03 -.30437223718E-03 -.45974822587E-03 -.44835494620E-03 -.37232013548E-03
 -.19109320207E-03 0.20652391091E-04 0.12293397471E-03 0.60485181403E-04 -.92114988502E-04
 -.21513371035E-03 -.21081831703E-03 -.97305041534E-05 0.38531504195E-03 0.82319432347E-03
 0.10535540802E-02 0.93290104882E-03 0.57125369636E-03 0.24018874063E-03 0.15737662872E-03
 0.37856266942E-03 0.82960023446E-03 0.13515549701E-02 0.17355220767E-02 0.18361481064E-02
 0.17256719540E-02 0.16917481194E-02 0.20034694677E-02 0.26491513997E-02 0.33080798277E-02
 0.35857340827E-02 0.33080798277E-02 0.26491513997E-02 0.20034694677E-02 0.16917481194E-02
 0.17256719540E-02 0.18361481064E-02 0.17355220767E-02 0.13515549701E-02 0.82960023445E-03
 0.37856266942E-03 0.15737662872E-03 0.24018874063E-03 0.57125369636E-03 0.93290104883E-03
 0.10535540802E-02 0.82319432347E-03 0.38531504195E-03 -.97305041498E-05 -.21081831703E-03
 -.21513371035E-03 -.92114988499E-04 0.60485181406E-04 0.12293397471E-03 0.20652391094E-04
 -.19109320207E-03 -.37232013548E-03 -.44835494620E-03 -.27786009185E-03 -.25468998723E-03
 -.16742036453E-03 -.56118769592E-05 0.17244430042E-03 0.26159134127E-03 0.20321901333E-03
 0.43887436097E-04 -.98920966378E-04 -.11816531245E-03 0.22779760963E-04 0.27279851451E-03
 0.51418766016E-03 0.62198940800E-03 0.54156423376E-03 0.33497130533E-03 0.16412680749E-03
 0.22535494418E-03 0.66091364262E-03 0.14630568769E-02 0.24211566746E-02 0.32035612428E-02
 0.35889608903E-02 0.36815166514E-02 0.38764055519E-02 0.45369049826E-02 0.56383665608E-02
 0.67096019515E-02 0.71558275165E-02 0.67096019515E-02 0.56383665608E-02 0.45369049826E-02
 0.38764055519E-02 0.36815166514E-02 0.35889608903E-02 0.32035612428E-02 0.24211566746E-02
 0.14630568769E-02 0.66091364262E-03 0.22535494418E-03 0.16412680749E-03 0.33497130534E-03
 0.54156423377E-03 0.62198940800E-03 0.51418766017E-03 0.27279851451E-03 0.22779760965E-04
 -.11816531245E-03 -.98920966381E-04 0.43887436097E-04 0.20321901333E-03 0.26159134127E-03
 0.17244430042E-03 -.56118769598E-05 -.16742036454E-03 -.25468998723E-03 0.18570353097E-03
 0.19830647923E-03 0.23224197887E-03 0.28096928227E-03 0.33304742335E-03 0.35556879731E-03
 0.30363178344E-03 0.17318959623E-03 0.31777263153E-04 -.34602338282E-04 -.44385163239E-05
 0.72524917296E-04 0.14325607004E-03 0.18924753899E-03 0.19800242280E-03 0.15916626737E-03
 0.14027123601E-03 0.33687390466E-03 0.96509720867E-03 0.20488708181E-02 0.33172446571E-02
 0.43534333260E-02 0.49042221185E-02 0.51020213966E-02 0.53968687387E-02 0.62025440913E-02
 0.75038190726E-02 0.87670380568E-02 0.92945178231E-02 0.87670380568E-02 0.75038190726E-02
 0.62025440913E-02 0.53968687387E-02 0.51020213966E-02 0.49042221185E-02 0.43534333260E-02
 0.33172446570E-02 0.20488708181E-02 0.96509720867E-03 0.33687390466E-03 0.14027123601E-03
 0.15916626738E-03 0.19800242281E-03 0.18924753900E-03 0.14325607004E-03 0.72524917297E-04
 -.44385163235E-05 -.34602338285E-04 0.31777263149E-04 0.17318959623E-03 0.30363178343E-03
 0.35556879731E-03 0.33304742335E-03 0.28096928227E-03 0.23224197887E-03 0.19830647922E-03
 0.65186920757E-03 0.59577040826E-03 0.46335108462E-03 0.34049713867E-03 0.29859800691E-03
 0.32530357323E-03 0.33109457232E-03 0.24653788331E-03 0.10019012457E-03 -.21994116668E-04
 -.74130028813E-04 -.70228115372E-04 -.24074404063E-04 0.70395725257E-04 0.18932396763E-03
 0.28116056855E-03 0.37925449039E-03 0.67816735874E-03 0.14089146800E-02 0.25892257427E-02
 0.39127971057E-02 0.49271707899E-02 0.53715389053E-02 0.53989413747E-02 0.54916210384E-02
 0.60962112555E-02 0.72282841417E-02 0.83795950620E-02 0.88681127206E-02 0.83795950620E-02
 0.72282841417E-02 0.60962112555E-02 0.54916210384E-02 0.53989413747E-02 0.53715389053E-02
 0.49271707899E-02 0.39127971057E-02 0.25892257427E-02 0.14089146800E-02 0.67816735875E-03
 0.37925449039E-03 0.28116056856E-03 0.18932396763E-03 0.70395725256E-04 -.24074404065E-04
 -.70228115373E-04 -.74130028814E-04 -.21994116671E-04 0.10019012456E-03 0.24653788331E-03
 0.33109457232E-03 0.32530357323E-03 0.29859800691E-03 0.34049713866E-03 0.46335108462E-03
 0.59577040826E-03 0.82435412101E-03 0.68215994154E-03 0.36952818151E-03 0.11972252076E-03
 0.74663297207E-04 0.18500172177E-03 0.29610141263E-03 0.29887836938E-03 0.19354566619E-03
 0.48477097178E-04 -.56265105694E-04 -.47987542251E-04 0.12147751664E-03 0.43050134018E-03
 0.76942931873E-03 0.10222195887E-02 0.12086627084E-02 0.15339201203E-02 0.22409574411E-02
 0.33581992847E-02 0.45789024418E-02 0.54292002466E-02 0.56273284375E-02 0.53386038221E-02
 0.50844500225E-02 0.53434495324E-02 0.61553998750E-02 0.70626130749E-02 0.74572016887E-02
 0.70626130749E-02 0.61553998750E-02 0.53434495323E-02 0.50844500225E-02 0.53386038221E-02
 0.56273284375E-02 0.54292002466E-02 0.45789024418E-02 0.33581992847E-02 0.22409574411E-02
 0.15339201203E-02 0.12086627084E-02 0.10222195887E-02 0.76942931874E-03 0.43050134017E-03
 0.12147751664E-03 -.47987542253E-04 -.56265105698E-04 0.48477097174E-04 0.19354566619E-03
 0.29887836938E-03 0.29610141263E-03 0.18500172177E-03 0.74663297208E-04 0.11972252076E-03
 0.36952818151E-03 0.68215994154E-03 0.64390985553E-03 0.47316035616E-03 0.11576703177E-03
 -.13416038155E-03 -.13399595200E-03 0.39550109722E-04 0.24615512132E-03 0.39694024465E-03
 0.43287457552E-03 0.32414506023E-03 0.16291906060E-03 0.18189285499E-03 0.57586333525E-03
 0.12910506073E-02 0.20379727110E-02 0.25394778852E-02 0.27763355459E-02 0.30135848065E-02
 0.35868583242E-02 0.45985924588E-02 0.57553868932E-02 0.65272052170E-02 0.65661114220E-02
 0.60357838554E-02 0.55148640012E-02 0.55272847198E-02 0.61216614838E-02 0.68603825181E-02
 0.71883236616E-02 0.68603825181E-02 0.61216614838E-02 0.55272847198E-02 0.55148640012E-02
 0.60357838554E-02 0.65661114220E-02 0.65272052170E-02 0.57553868932E-02 0.45985924588E-02
 0.35868583242E-02 0.30135848065E-02 0.27763355459E-02 0.25394778852E-02 0.20379727110E-02
 0.12910506073E-02 0.57586333524E-03 0.18189285498E-03 0.16291906059E-03 0.32414506023E-03
 0.43287457552E-03 0.39694024465E-03 0.24615512132E-03 0.39550109719E-04 -.13399595200E-03
 -.13416038155E-03 0.11576703177E-03 0.47316035616E-03 0.34643098797E-03 0.20863720201E-03
 -.64582775558E-04 -.22707021594E-03 -.19042791191E-03 -.20425431278E-04 0.23213933401E-03
 0.53530682005E-03 0.75064700409E-03 0.71093726866E-03 0.50578997574E-03 0.54938078623E-03
 0.12163076434E-02 0.24265045469E-02 0.36713780166E-02 0.44562938277E-02 0.47038647338E-02
 0.47824741891E-02 0.51929828853E-02 0.61548670572E-02 0.73749555815E-02 0.82189030534E-02
 0.82279081577E-02 0.75478006100E-02 0.68301286975E-02 0.66742653998E-02 0.71501081221E-02
 0.78135723150E-02 0.81140649412E-02 0.78135723150E-02 0.71501081221E-02 0.66742653998E-02
 0.68301286975E-02 0.75478006100E-02 0.82279081577E-02 0.82189030534E-02 0.73749555815E-02
 0.61548670572E-02 0.51929828853E-02 0.47824741891E-02 0.47038647338E-02 0.44562938277E-02
 0.36713780166E-02 0.24265045469E-02 0.12163076434E-02 0.54938078622E-03 0.50578997573E-03
 0.71093726865E-03 0.75064700408E-03 0.53530682005E-03 0.23213933400E-03 -.20425431282E-04
 -.19042791191E-03 -.22707021594E-03 -.64582775553E-04 0.20863720201E-03 0.26284999020E-03
 0.14498331142E-03 -.79987562213E-04 -.19735326849E-03 -.14850390236E-03 0.92213010196E-05
 0.27360961264E-03 0.64398165828E-03 0.94606523255E-03 0.94932947063E-03 0.74776789007E-03
 0.85292124655E-03 0.17360717178E-02 0.33015769984E-02 0.49085673209E-02 0.59175496184E-02
 0.62016824619E-02 0.62007782158E-02 0.65465760709E-02 0.75507688831E-02 0.89052187793E-02
 0.98676088223E-02 0.98698145494E-02 0.90362875372E-02 0.80898194350E-02 0.77218561883E-02
 0.80509428981E-02 0.86350715794E-02 0.89110241264E-02 0.86350715794E-02 0.80509428981E-02
 0.77218561883E-02 0.80898194350E-02 0.90362875372E-02 0.98698145494E-02 0.98676088223E-02
 0.89052187793E-02 0.75507688831E-02 0.65465760709E-02 0.62007782158E-02 0.62016824619E-02
 0.59175496184E-02 0.49085673209E-02 0.33015769984E-02 0.17360717178E-02 0.85292124655E-03
 0.74776789006E-03 0.94932947062E-03 0.94606523255E-03 0.64398165828E-03 0.27360961264E-03
 0.92213010147E-05 -.14850390236E-03 -.19735326848E-03 -.79987562208E-04 0.14498331142E-03
 0.53246004654E-03 0.37246597848E-03 0.54563473123E-04 -.13722338488E-03 -.10299948250E-03
 0.78313063352E-04 0.34969224479E-03 0.68499883397E-03 0.93985263604E-03 0.93008351080E-03
 0.75843806780E-03 0.90569440479E-03 0.18218431953E-02 0.34320294878E-02 0.51316751250E-02
 0.62846580643E-02 0.67281933676E-02 0.68672882215E-02 0.73318966345E-02 0.84498506807E-02
 0.99099864463E-02 0.10937519598E-01 0.10929401507E-01 0.10004138081E-01 0.89126110042E-02
 0.83890862936E-02 0.85882306313E-02 0.90888925316E-02 0.93363609822E-02 0.90888925316E-02
 0.85882306313E-02 0.83890862936E-02 0.89126110042E-02 0.10004138081E-01 0.10929401507E-01
 0.10937519598E-01 0.99099864463E-02 0.84498506807E-02 0.73318966345E-02 0.68672882215E-02
 0.67281933676E-02 0.62846580643E-02 0.51316751250E-02 0.34320294878E-02 0.18218431953E-02
 0.90569440478E-03 0.75843806780E-03 0.93008351080E-03 0.93985263603E-03 0.68499883396E-03
 0.34969224479E-03 0.78313063346E-04 -.10299948250E-03 -.13722338488E-03 0.54563473126E-04
 0.37246597848E-03 0.97859370788E-03 0.75725690207E-03 0.29599531056E-03 -.28871213382E-04
 -.47406831035E-04 0.14685372449E-03 0.41705741372E-03 0.68781918026E-03 0.85796670577E-03
 0.81907906832E-03 0.66901333365E-03 0.79007719831E-03 0.15596244757E-02 0.29646745376E-02
 0.45594851843E-02 0.58207727435E-02 0.65570229292E-02 0.70348052924E-02 0.77418926088E-02
 0.89471333082E-02 0.10385138157E-01 0.11388583291E-01 0.11443710980E-01 0.10676897965E-01
 0.97697470708E-02 0.93760890244E-02 0.96222403162E-02 0.10117619273E-01 0.10356011575E-01
 0.10117619273E-01 0.96222403162E-02 0.93760890244E-02 0.97697470708E-02 0.10676897965E-01
 0.11443710980E-01 0.11388583291E-01 0.10385138157E-01 0.89471333082E-02 0.77418926088E-02
 0.70348052924E-02 0.65570229292E-02 0.58207727435E-02 0.45594851843E-02 0.29646745376E-02
 0.15596244757E-02 0.79007719831E-03 0.66901333364E-03 0.81907906831E-03 0.85796670577E-03
 0.68781918025E-03 0.41705741371E-03 0.14685372449E-03 -.47406831036E-04 -.28871213379E-04
 0.29599531056E-03 0.75725690207E-03 0.12522815689E-02 0.10261133440E-02 0.53689283611E-03
 0.14874559988E-03 0.54515120467E-04 0.19539178125E-03 0.43828202843E-03 0.69276398895E-03
 0.86838853663E-03 0.88128320156E-03 0.79972565542E-03 0.90897196590E-03 0.15185459277E-02
 0.26824148162E-02 0.41349124435E-02 0.54996560055E-02 0.65645274316E-02 0.74061611543E-02
 0.82859128819E-02 0.93795376651E-02 0.10543251001E-01 0.11365497152E-01 0.11528256157E-01
 0.11143915161E-01 0.10696764173E-01 0.10629928259E-01 0.10996174415E-01 0.11479932737E-01
 0.11696046880E-01 0.11479932737E-01 0.10996174415E-01 0.10629928259E-01 0.10696764173E-01
 0.11143915161E-01 0.11528256157E-01 0.11365497152E-01 0.10543251001E-01 0.93795376651E-02
 0.82859128819E-02 0.74061611543E-02 0.65645274316E-02 0.54996560055E-02 0.41349124435E-02
 0.26824148162E-02 0.15185459277E-02 0.90897196590E-03 0.79972565542E-03 0.88128320155E-03
 0.86838853663E-03 0.69276398894E-03 0.43828202843E-03 0.19539178124E-03 0.54515120466E-04
 0.14874559988E-03 0.53689283611E-03 0.10261133440E-02 0.11218763317E-02 0.96205800290E-03
 0.60337743808E-03 0.28389385011E-03 0.14930375473E-03 0.20364688787E-03 0.40457548409E-03
 0.70929776115E-03 0.10332446856E-02 0.12699136905E-02 0.14173463338E-02 0.16485721873E-02
 0.22019663015E-02 0.31947555102E-02 0.45411254791E-02 0.60145012167E-02 0.73702959018E-02
 0.84575150549E-02 0.92741680792E-02 0.99157844095E-02 0.10437750619E-01 0.10775192291E-01
 0.10831495020E-01 0.10636089551E-01 0.10367501352E-01 0.10207456793E-01 0.10201849874E-01
 0.10269198210E-01 0.10305873857E-01 0.10269198210E-01 0.10201849874E-01 0.10207456793E-01
 0.10367501352E-01 0.10636089551E-01 0.10831495020E-01 0.10775192291E-01 0.10437750619E-01
 0.99157844095E-02 0.92741680792E-02 0.84575150549E-02 0.73702959018E-02 0.60145012167E-02
 0.45411254791E-02 0.31947555102E-02 0.22019663015E-02 0.16485721873E-02 0.14173463338E-02
 0.12699136905E-02 0.10332446855E-02 0.70929776115E-03 0.40457548409E-03 0.20364688787E-03
 0.14930375473E-03 0.28389385011E-03 0.60337743808E-03 0.96205800290E-03 0.66917273045E-03
 0.59498118492E-03 0.42293778954E-03 0.25288226234E-03 0.15465686973E-03 0.16698119789E-03
 0.34333537696E-03 0.73578780134E-03 0.13152598430E-02 0.19477171954E-02 0.24914421255E-02
 0.29315293158E-02 0.34242040958E-02 0.42102565207E-02 0.54488196307E-02 0.70642315900E-02
 0.87150312952E-02 0.99518703575E-02 0.10486531237E-01 0.10359927129E-01 0.98579029238E-02
 0.92550741577E-02 0.86166473639E-02 0.78035032736E-02 0.66390901416E-02 0.51051557139E-02
 0.34508446088E-02 0.21412185644E-02 0.16396531960E-02 0.21412185644E-02 0.34508446088E-02
 0.51051557138E-02 0.66390901416E-02 0.78035032736E-02 0.86166473638E-02 0.92550741577E-02
 0.98579029238E-02 0.10359927129E-01 0.10486531237E-01 0.99518703575E-02 0.87150312952E-02
 0.70642315900E-02 0.54488196307E-02 0.42102565207E-02 0.34242040958E-02 0.29315293158E-02
 0.24914421255E-02 0.19477171954E-02 0.13152598430E-02 0.73578780135E-03 0.34333537696E-03
 0.16698119789E-03 0.15465686973E-03 0.25288226235E-03 0.42293778954E-03 0.59498118492E-03
 0.23197689458E-03 0.21618021130E-03 0.18004842883E-03 0.14297664024E-03 0.11762680902E-03
 0.13717981622E-03 0.30449922244E-03 0.77416661399E-03 0.16189193743E-02 0.26838092402E-02
 0.36208881244E-02 0.41601005771E-02 0.44020562224E-02 0.48213733589E-02 0.59057694726E-02
 0.77109880946E-02 0.97170348473E-02 0.11119374674E-01 0.11329930304E-01 0.10310853755E-01
 0.85058945410E-02 0.64295687694E-02 0.42220304342E-02 0.15242971996E-02 -.21803626686E-02
 -.69698405611E-02 -.12087329132E-01 -.16109354687E-01 -.17642641447E-01 -.16109354687E-01
 -.12087329132E-01 -.69698405611E-02 -.21803626686E-02 0.15242971996E-02 0.42220304342E-02
 0.64295687694E-02 0.85058945410E-02 0.10310853755E-01 0.11329930304E-01 0.11119374674E-01
 0.97170348473E-02 0.77109880946E-02 0.59057694726E-02 0.48213733589E-02 0.44020562224E-02
 0.41601005771E-02 0.36208881244E-02 0.26838092402E-02 0.16189193743E-02 0.77416661399E-03
 0.30449922244E-03 0.13717981623E-03 0.11762680902E-03 0.14297664024E-03 0.18004842883E-03
 0.21618021130E-03 0.13751939063E-03 0.15662056638E-03 0.19528364928E-03 0.21837666925E-03
 0.20976796993E-03 0.20341452654E-03 0.32799061290E-03 0.80920957715E-03 0.18054103059E-02
 0.31384601330E-02 0.42617219209E-02 0.46818941239E-02 0.45014739692E-02 0.44674058163E-02
 0.53725446756E-02 0.73514362424E-02 0.97027183012E-02 0.11320960559E-01 0.11332572963E-01
 0.95140887202E-02 0.62845000328E-02 0.22561004076E-02 -.24052635362E-02 -.82664295358E-02
 -.16125730894E-01 -.25964949976E-01 -.36229861174E-01 -.44176609538E-01 -.47183820401E-01
 -.44176609538E-01 -.36229861174E-01 -.25964949976E-01 -.16125730894E-01 -.82664295358E-02
 -.24052635362E-02 0.22561004076E-02 0.62845000328E-02 0.95140887202E-02 0.11332572963E-01
 0.11320960559E-01 0.97027183012E-02 0.73514362424E-02 0.53725446756E-02 0.44674058163E-02
 0.45014739692E-02 0.46818941238E-02 0.42617219209E-02 0.31384601330E-02 0.18054103059E-02
 0.80920957716E-03 0.32799061290E-03 0.20341452654E-03 0.20976796993E-03 0.21837666925E-03
 0.19528364928E-03 0.15662056638E-03 0.43978139947E-03 0.49605974885E-03 0.59424926472E-03
 0.61337676910E-03 0.52076498851E-03 0.39699647640E-03 0.41130702074E-03 0.81154200340E-03
 0.17782447748E-02 0.31144550594E-02 0.41717461840E-02 0.43538879905E-02 0.37993607709E-02
 0.34284878594E-02 0.41863989789E-02 0.62279781693E-02 0.87745777009E-02 0.10586060526E-01
 0.10556018900E-01 0.81502694650E-02 0.35680486534E-02 -.25975682414E-02 -.10154309619E-01
 -.19815843404E-01 -.32583884599E-01 -.48240244711E-01 -.64305212273E-01 -.76605061054E-01
 -.81233609578E-01 -.76605061054E-01 -.64305212273E-01 -.48240244711E-01 -.32583884599E-01
 -.19815843404E-01 -.10154309619E-01 -.25975682415E-02 0.35680486534E-02 0.81502694650E-02
 0.10556018900E-01 0.10586060526E-01 0.87745777008E-02 0.62279781693E-02 0.41863989789E-02
 0.34284878594E-02 0.37993607708E-02 0.43538879905E-02 0.41717461840E-02 0.31144550594E-02
 0.17782447748E-02 0.81154200340E-03 0.41130702075E-03 0.39699647640E-03 0.52076498851E-03
 0.61337676910E-03 0.59424926472E-03 0.49605974884E-03 0.87497228451E-03 0.97192757877E-03
 0.11290384511E-02 0.11215778502E-02 0.90279586099E-03 0.62395821190E-03 0.50490006180E-03
 0.78216960644E-03 0.16121343728E-02 0.27936600973E-02 0.36772355838E-02 0.36686351443E-02
 0.29345622714E-02 0.24312731409E-02 0.31056808397E-02 0.51025689072E-02 0.76732984345E-02
 0.95900930309E-02 0.95966301640E-02 0.68407386506E-02 0.12468418504E-02 -.66549414256E-02
 -.16635782489E-01 -.29485290278E-01 -.46325989007E-01 -.66741851672E-01 -.87491562011E-01
 -.10327223799E+00 -.10918997935E+00 -.10327223799E+00 -.87491562011E-01 -.66741851672E-01
 -.46325989007E-01 -.29485290278E-01 -.16635782489E-01 -.66549414256E-02 0.12468418504E-02
 0.68407386506E-02 0.95966301639E-02 0.95900930309E-02 0.76732984345E-02 0.51025689072E-02
 0.31056808397E-02 0.24312731409E-02 0.29345622713E-02 0.36686351443E-02 0.36772355838E-02
 0.27936600973E-02 0.16121343728E-02 0.78216960644E-03 0.50490006180E-03 0.62395821190E-03
 0.90279586099E-03 0.11215778502E-02 0.11290384511E-02 0.97192757877E-03 0.10762490894E-02
 0.11920014988E-02 0.13761407697E-02 0.13554766026E-02 0.10768556201E-02 0.72572302565E-03
 0.54562959994E-03 0.76325135956E-03 0.15176797176E-02 0.26095975272E-02 0.34065701054E-02
 0.33318294925E-02 0.25602569531E-02 0.20380881595E-02 0.26875773272E-02 0.46457793576E-02
 0.71962360682E-02 0.91406540635E-02 0.91712897226E-02 0.62990550771E-02 0.32403375237E-03
 -.82551024150E-02 -.19191103968E-01 -.33295225640E-01 -.51729828543E-01 -.73996371345E-01
 -.96556425640E-01 -.11367540108E+00 -.12008736069E+00 -.11367540108E+00 -.96556425640E-01
 -.73996371345E-01 -.51729828543E-01 -.33295225640E-01 -.19191103968E-01 -.82551024150E-02
 0.32403375237E-03 0.62990550771E-02 0.91712897226E-02 0.91406540635E-02 0.71962360682E-02
 0.46457793576E-02 0.26875773272E-02 0.20380881595E-02 0.25602569531E-02 0.33318294925E-02
 0.34065701054E-02 0.26095975272E-02 0.15176797176E-02 0.76325135956E-03 0.54562959995E-03
 0.72572302565E-03 0.10768556201E-02 0.13554766026E-02 0.13761407697E-02 0.11920014988E-02
 0.87497228451E-03 0.97192757878E-03 0.11290384511E-02 0.11215778502E-02 0.90279586099E-03
 0.62395821190E-03 0.50490006180E-03 0.78216960644E-03 0.16121343728E-02 0.27936600973E-02
 0.36772355838E-02 0.36686351443E-02 0.29345622713E-02 0.24312731409E-02 0.31056808397E-02
 0.51025689072E-02 0.76732984345E-02 0.95900930309E-02 0.95966301639E-02 0.68407386506E-02
 0.12468418504E-02 -.66549414256E-02 -.16635782489E-01 -.29485290278E-01 -.46325989007E-01
 -.66741851672E-01 -.87491562011E-01 -.10327223799E+00 -.10918997935E+00 -.10327223799E+00
 -.87491562011E-01 -.66741851672E-01 -.46325989007E-01 -.29485290278E-01 -.16635782489E-01
 -.66549414256E-02 0.12468418504E-02 0.68407386506E-02 0.95966301639E-02 0.95900930309E-02
 0.76732984345E-02 0.51025689072E-02 0.31056808397E-02 0.24312731409E-02 0.29345622714E-02
 0.36686351443E-02 0.36772355838E-02 0.27936600973E-02 0.16121343728E-02 0.78216960645E-03
 0.50490006180E-03 0.62395821190E-03 0.90279586099E-03 0.11215778502E-02 0.11290384511E-02
 0.97192757877E-03 0.43978139947E-03 0.49605974885E-03 0.59424926472E-03 0.61337676910E-03
 0.52076498851E-03 0.39699647640E-03 0.41130702074E-03 0.81154200340E-03 0.17782447748E-02
 0.31144550594E-02 0.41717461839E-02 0.43538879905E-02 0.37993607708E-02 0.34284878594E-02
 0.41863989789E-02 0.62279781693E-02 0.87745777008E-02 0.10586060526E-01 0.10556018900E-01
 0.81502694650E-02 0.35680486534E-02 -.25975682415E-02 -.10154309619E-01 -.19815843404E-01
 -.32583884599E-01 -.48240244711E-01 -.64305212273E-01 -.76605061054E-01 -.81233609578E-01
 -.76605061054E-01 -.64305212273E-01 -.48240244711E-01 -.32583884599E-01 -.19815843404E-01
 -.10154309619E-01 -.25975682415E-02 0.35680486534E-02 0.81502694650E-02 0.10556018900E-01
 0.10586060526E-01 0.87745777009E-02 0.62279781693E-02 0.41863989789E-02 0.34284878594E-02
 0.37993607709E-02 0.43538879905E-02 0.41717461840E-02 0.31144550594E-02 0.17782447748E-02
 0.81154200340E-03 0.41130702075E-03 0.39699647640E-03 0.52076498851E-03 0.61337676910E-03
 0.59424926472E-03 0.49605974884E-03 0.13751939063E-03 0.15662056638E-03 0.19528364928E-03
 0.21837666925E-03 0.20976796993E-03 0.20341452654E-03 0.32799061290E-03 0.80920957715E-03
 0.18054103059E-02 0.31384601330E-02 0.42617219209E-02 0.46818941239E-02 0.45014739692E-02
 0.44674058163E-02 0.53725446756E-02 0.73514362424E-02 0.97027183012E-02 0.11320960559E-01
 0.11332572963E-01 0.95140887202E-02 0.62845000328E-02 0.22561004076E-02 -.24052635362E-02
 -.82664295358E-02 -.16125730894E-01 -.25964949976E-01 -.36229861174E-01 -.44176609538E-01
 -.47183820401E-01 -.44176609538E-01 -.36229861174E-01 -.25964949976E-01 -.16125730894E-01
 -.82664295358E-02 -.24052635362E-02 0.22561004076E-02 0.62845000328E-02 0.95140887202E-02
 0.11332572963E-01 0.11320960559E-01 0.97027183012E-02 0.73514362424E-02 0.53725446756E-02
 0.44674058163E-02 0.45014739692E-02 0.46818941239E-02 0.42617219209E-02 0.31384601330E-02
 0.18054103059E-02 0.80920957716E-03 0.32799061290E-03 0.20341452654E-03 0.20976796993E-03
 0.21837666925E-03 0.19528364928E-03 0.15662056638E-03 0.23197689458E-03 0.21618021130E-03
 0.18004842883E-03 0.14297664024E-03 0.11762680902E-03 0.13717981623E-03 0.30449922244E-03
 0.77416661399E-03 0.16189193743E-02 0.26838092402E-02 0.36208881244E-02 0.41601005771E-02
 0.44020562224E-02 0.48213733589E-02 0.59057694726E-02 0.77109880946E-02 0.97170348473E-02
 0.11119374674E-01 0.11329930304E-01 0.10310853755E-01 0.85058945410E-02 0.64295687694E-02
 0.42220304342E-02 0.15242971996E-02 -.21803626686E-02 -.69698405611E-02 -.12087329132E-01
 -.16109354687E-01 -.17642641447E-01 -.16109354687E-01 -.12087329132E-01 -.69698405611E-02
 -.21803626686E-02 0.15242971996E-02 0.42220304342E-02 0.64295687694E-02 0.85058945410E-02
 0.10310853755E-01 0.11329930304E-01 0.11119374674E-01 0.97170348473E-02 0.77109880946E-02
 0.59057694726E-02 0.48213733589E-02 0.44020562224E-02 0.41601005771E-02 0.36208881244E-02
 0.26838092402E-02 0.16189193743E-02 0.77416661399E-03 0.30449922244E-03 0.13717981623E-03
 0.11762680902E-03 0.14297664024E-03 0.18004842883E-03 0.21618021130E-03 0.66917273045E-03
 0.59498118492E-03 0.42293778955E-03 0.25288226235E-03 0.15465686973E-03 0.16698119789E-03