   2   2   0   0
  0.1213200E+03  0.6740000E-09  0.6000000E-09  0.6000000E-09  0.5000000E-15
  1.00000000000000005E-004
  CAR 
 h2                                      
      4.43343907    -12.23994359  301     -9.29429909      1.00000000
    -12.240  0.0000E+00  0.0000E+00
    -12.184  0.0000E+00  0.0000E+00
    -12.129  0.0000E+00  0.0000E+00
    -12.073  0.0000E+00  0.0000E+00
    -12.018  0.0000E+00  0.0000E+00
    -11.962  0.0000E+00  0.0000E+00
    -11.906  0.0000E+00  0.0000E+00
    -11.851  0.0000E+00  0.0000E+00
    -11.795  0.0000E+00  0.0000E+00
    -11.740  0.0000E+00  0.0000E+00
    -11.684  0.0000E+00  0.0000E+00
    -11.629  0.0000E+00  0.0000E+00
    -11.573  0.0000E+00  0.0000E+00
    -11.517  0.0000E+00  0.0000E+00
    -11.462  0.0000E+00  0.0000E+00
    -11.406  0.1998E-14  0.1110E-15
    -11.351  0.6992E-13  0.3997E-14
    -11.295  0.1470E-11  0.8571E-13
    -11.240  0.2669E-10  0.1569E-11
    -11.184  0.4159E-09  0.2469E-10
    -11.128  0.5561E-08  0.3338E-09
    -11.073  0.6381E-07  0.3880E-08
    -11.017  0.6283E-06  0.3880E-07
    -10.962  0.5309E-05  0.3339E-06
    -10.906  0.3851E-04  0.2474E-05
    -10.850  0.2397E-03  0.1580E-04
    -10.795  0.1281E-02  0.8700E-04
    -10.739  0.5876E-02  0.4136E-03
    -10.684  0.2314E-01  0.1700E-02
    -10.628  0.7821E-01  0.6046E-02
    -10.573  0.2269E+00  0.1866E-01
    -10.517  0.5654E+00  0.5008E-01
    -10.461  0.1209E+01  0.1173E+00
    -10.406  0.2220E+01  0.2407E+00
    -10.350  0.3500E+01  0.4352E+00
    -10.295  0.4738E+01  0.6985E+00
    -10.239  0.5506E+01  0.1005E+01
    -10.184  0.5494E+01  0.1310E+01
    -10.128  0.4706E+01  0.1571E+01
    -10.072  0.3462E+01  0.1764E+01
    -10.017  0.2186E+01  0.1885E+01
     -9.961  0.1185E+01  0.1951E+01
     -9.906  0.5518E+00  0.1982E+01
     -9.850  0.2205E+00  0.1994E+01
     -9.795  0.7566E-01  0.1998E+01
     -9.739  0.2228E-01  0.2000E+01
     -9.683  0.5634E-02  0.2000E+01
     -9.628  0.1223E-02  0.2000E+01
     -9.572  0.2278E-03  0.2000E+01
     -9.517  0.3644E-04  0.2000E+01
     -9.461  0.5001E-05  0.2000E+01
     -9.405  0.5892E-06  0.2000E+01
     -9.350  0.5957E-07  0.2000E+01
     -9.294  0.5169E-08  0.2000E+01
     -9.239  0.3849E-09  0.2000E+01
     -9.183  0.2459E-10  0.2000E+01
     -9.128  0.1350E-11  0.2000E+01
     -9.072  0.6392E-13  0.2000E+01
     -9.016  0.0000E+00  0.2000E+01
     -8.961  0.0000E+00  0.2000E+01
     -8.905  0.0000E+00  0.2000E+01
     -8.850  0.0000E+00  0.2000E+01
     -8.794  0.0000E+00  0.2000E+01
     -8.739  0.0000E+00  0.2000E+01
     -8.683  0.0000E+00  0.2000E+01
     -8.627  0.0000E+00  0.2000E+01
     -8.572  0.0000E+00  0.2000E+01
     -8.516  0.0000E+00  0.2000E+01
     -8.461  0.0000E+00  0.2000E+01
     -8.405  0.0000E+00  0.2000E+01
     -8.349  0.0000E+00  0.2000E+01
     -8.294  0.0000E+00  0.2000E+01
     -8.238  0.0000E+00  0.2000E+01
     -8.183  0.0000E+00  0.2000E+01
     -8.127  0.0000E+00  0.2000E+01
     -8.072  0.0000E+00  0.2000E+01
     -8.016  0.0000E+00  0.2000E+01
     -7.960  0.0000E+00  0.2000E+01
     -7.905  0.0000E+00  0.2000E+01
     -7.849  0.0000E+00  0.2000E+01
     -7.794  0.0000E+00  0.2000E+01
     -7.738  0.0000E+00  0.2000E+01
     -7.683  0.0000E+00  0.2000E+01
     -7.627  0.0000E+00  0.2000E+01
     -7.571  0.0000E+00  0.2000E+01
     -7.516  0.0000E+00  0.2000E+01
     -7.460  0.0000E+00  0.2000E+01
     -7.405  0.0000E+00  0.2000E+01
     -7.349  0.0000E+00  0.2000E+01
     -7.294  0.0000E+00  0.2000E+01
     -7.238  0.0000E+00  0.2000E+01
     -7.182  0.0000E+00  0.2000E+01
     -7.127  0.0000E+00  0.2000E+01
     -7.071  0.0000E+00  0.2000E+01
     -7.016  0.0000E+00  0.2000E+01
     -6.960  0.0000E+00  0.2000E+01
     -6.904  0.0000E+00  0.2000E+01
     -6.849  0.0000E+00  0.2000E+01
     -6.793  0.0000E+00  0.2000E+01
     -6.738  0.0000E+00  0.2000E+01
     -6.682  0.0000E+00  0.2000E+01
     -6.627  0.0000E+00  0.2000E+01
     -6.571  0.0000E+00  0.2000E+01
     -6.515  0.0000E+00  0.2000E+01
     -6.460  0.0000E+00  0.2000E+01
     -6.404  0.0000E+00  0.2000E+01
     -6.349  0.0000E+00  0.2000E+01
     -6.293  0.0000E+00  0.2000E+01
     -6.238  0.0000E+00  0.2000E+01
     -6.182  0.0000E+00  0.2000E+01
     -6.126  0.0000E+00  0.2000E+01
     -6.071  0.0000E+00  0.2000E+01
     -6.015  0.0000E+00  0.2000E+01
     -5.960  0.0000E+00  0.2000E+01
     -5.904  0.0000E+00  0.2000E+01
     -5.848  0.0000E+00  0.2000E+01
     -5.793  0.0000E+00  0.2000E+01
     -5.737  0.0000E+00  0.2000E+01
     -5.682  0.0000E+00  0.2000E+01
     -5.626  0.0000E+00  0.2000E+01
     -5.571  0.0000E+00  0.2000E+01
     -5.515  0.0000E+00  0.2000E+01
     -5.459  0.0000E+00  0.2000E+01
     -5.404  0.0000E+00  0.2000E+01
     -5.348  0.0000E+00  0.2000E+01
     -5.293  0.0000E+00  0.2000E+01
     -5.237  0.0000E+00  0.2000E+01
     -5.182  0.0000E+00  0.2000E+01
     -5.126  0.0000E+00  0.2000E+01
     -5.070  0.0000E+00  0.2000E+01
     -5.015  0.0000E+00  0.2000E+01
     -4.959  0.0000E+00  0.2000E+01
     -4.904  0.0000E+00  0.2000E+01
     -4.848  0.0000E+00  0.2000E+01
     -4.792  0.0000E+00  0.2000E+01
     -4.737  0.0000E+00  0.2000E+01
     -4.681  0.0000E+00  0.2000E+01
     -4.626  0.0000E+00  0.2000E+01
     -4.570  0.0000E+00  0.2000E+01
     -4.515  0.0000E+00  0.2000E+01
     -4.459  0.0000E+00  0.2000E+01
     -4.403  0.0000E+00  0.2000E+01
     -4.348  0.0000E+00  0.2000E+01
     -4.292  0.0000E+00  0.2000E+01
     -4.237  0.0000E+00  0.2000E+01
     -4.181  0.0000E+00  0.2000E+01
     -4.126  0.0000E+00  0.2000E+01
     -4.070  0.0000E+00  0.2000E+01
     -4.014  0.0000E+00  0.2000E+01
     -3.959  0.0000E+00  0.2000E+01
     -3.903  0.0000E+00  0.2000E+01
     -3.848  0.0000E+00  0.2000E+01
     -3.792  0.0000E+00  0.2000E+01
     -3.737  0.0000E+00  0.2000E+01
     -3.681  0.0000E+00  0.2000E+01
     -3.625  0.0000E+00  0.2000E+01
     -3.570  0.0000E+00  0.2000E+01
     -3.514  0.0000E+00  0.2000E+01
     -3.459  0.0000E+00  0.2000E+01
     -3.403  0.0000E+00  0.2000E+01
     -3.347  0.0000E+00  0.2000E+01
     -3.292  0.0000E+00  0.2000E+01
     -3.236  0.0000E+00  0.2000E+01
     -3.181  0.0000E+00  0.2000E+01
     -3.125  0.0000E+00  0.2000E+01
     -3.070  0.0000E+00  0.2000E+01
     -3.014  0.0000E+00  0.2000E+01
     -2.958  0.0000E+00  0.2000E+01
     -2.903  0.0000E+00  0.2000E+01
     -2.847  0.0000E+00  0.2000E+01
     -2.792  0.0000E+00  0.2000E+01
     -2.736  0.0000E+00  0.2000E+01
     -2.681  0.0000E+00  0.2000E+01
     -2.625  0.0000E+00  0.2000E+01
     -2.569  0.0000E+00  0.2000E+01
     -2.514  0.0000E+00  0.2000E+01
     -2.458  0.0000E+00  0.2000E+01
     -2.403  0.0000E+00  0.2000E+01
     -2.347  0.0000E+00  0.2000E+01
     -2.291  0.0000E+00  0.2000E+01
     -2.236  0.0000E+00  0.2000E+01
     -2.180  0.0000E+00  0.2000E+01
     -2.125  0.0000E+00  0.2000E+01
     -2.069  0.0000E+00  0.2000E+01
     -2.014  0.0000E+00  0.2000E+01
     -1.958  0.0000E+00  0.2000E+01
     -1.902  0.0000E+00  0.2000E+01
     -1.847  0.0000E+00  0.2000E+01
     -1.791  0.0000E+00  0.2000E+01
     -1.736  0.0000E+00  0.2000E+01
     -1.680  0.0000E+00  0.2000E+01
     -1.625  0.0000E+00  0.2000E+01
     -1.569  0.1199E-13  0.2000E+01
     -1.513  0.2797E-12  0.2000E+01
     -1.458  0.5527E-11  0.2000E+01
     -1.402  0.9367E-10  0.2000E+01
     -1.347  0.1362E-08  0.2000E+01
     -1.291  0.1700E-07  0.2000E+01
     -1.236  0.1821E-06  0.2000E+01
     -1.180  0.1674E-05  0.2000E+01
     -1.124  0.1320E-04  0.2000E+01
     -1.069  0.8940E-04  0.2000E+01
     -1.013  0.5196E-03  0.2000E+01
     -0.958  0.2592E-02  0.2000E+01
     -0.902  0.1110E-01  0.2001E+01
     -0.846  0.4080E-01  0.2003E+01
     -0.791  0.1288E+00  0.2010E+01
     -0.735  0.3488E+00  0.2030E+01
     -0.680  0.8113E+00  0.2075E+01
     -0.624  0.1620E+01  0.2165E+01
     -0.569  0.2777E+01  0.2319E+01
     -0.513  0.4088E+01  0.2546E+01
     -0.457  0.5166E+01  0.2833E+01
     -0.402  0.5605E+01  0.3145E+01
     -0.346  0.5222E+01  0.3435E+01
     -0.291  0.4177E+01  0.3667E+01
     -0.235  0.2868E+01  0.3827E+01
     -0.180  0.1691E+01  0.3921E+01
     -0.124  0.8561E+00  0.3968E+01
     -0.068  0.3721E+00  0.3989E+01
     -0.013  0.1388E+00  0.3997E+01
      0.043  0.4447E-01  0.3999E+01
      0.098  0.1223E-01  0.4000E+01
      0.154  0.2898E-02  0.4000E+01
      0.210  0.6640E-03  0.4000E+01
      0.265  0.5666E-03  0.4000E+01
      0.321  0.2358E-02  0.4000E+01
      0.376  0.1013E-01  0.4001E+01
      0.432  0.3762E-01  0.4003E+01
      0.487  0.1199E+00  0.4009E+01
      0.543  0.3282E+00  0.4028E+01
      0.599  0.7710E+00  0.4071E+01
      0.654  0.1555E+01  0.4157E+01
      0.710  0.2693E+01  0.4307E+01
      0.765  0.4004E+01  0.4529E+01
      0.821  0.5111E+01  0.4813E+01
      0.876  0.5601E+01  0.5125E+01
      0.932  0.5271E+01  0.5417E+01
      0.988  0.4259E+01  0.5654E+01
      1.043  0.2954E+01  0.5818E+01
      1.099  0.1759E+01  0.5916E+01
      1.154  0.8996E+00  0.5966E+01
      1.210  0.3949E+00  0.5988E+01
      1.265  0.1488E+00  0.5996E+01
      1.321  0.4816E-01  0.5999E+01
      1.377  0.1338E-01  0.6000E+01
      1.432  0.3189E-02  0.6000E+01
      1.488  0.6528E-03  0.6000E+01
      1.543  0.1147E-03  0.6000E+01
      1.599  0.1742E-04  0.6000E+01
      1.655  0.3417E-05  0.6000E+01
      1.710  0.1025E-04  0.6000E+01
      1.766  0.7290E-04  0.6000E+01
      1.821  0.4557E-03  0.6000E+01
      1.877  0.2446E-02  0.6000E+01
      1.932  0.1127E-01  0.6001E+01
      1.988  0.4457E-01  0.6003E+01
      2.044  0.1513E+00  0.6012E+01
      2.099  0.4410E+00  0.6036E+01
      2.155  0.1104E+01  0.6098E+01
      2.210  0.2371E+01  0.6229E+01
      2.266  0.4372E+01  0.6472E+01
      2.321  0.6924E+01  0.6857E+01
      2.377  0.9413E+01  0.7380E+01
      2.433  0.1099E+02  0.7991E+01
      2.488  0.1101E+02  0.8603E+01
      2.544  0.9476E+01  0.9130E+01
      2.599  0.7001E+01  0.9519E+01
      2.655  0.4441E+01  0.9765E+01
      2.711  0.2418E+01  0.9900E+01
      2.766  0.1131E+01  0.9963E+01
      2.822  0.4539E+00  0.9988E+01
      2.877  0.1564E+00  0.9997E+01
      2.933  0.4627E-01  0.9999E+01
      2.988  0.1175E-01  0.1000E+02
      3.044  0.2562E-02  0.1000E+02
      3.100  0.4795E-03  0.1000E+02
      3.155  0.7702E-04  0.1000E+02
      3.211  0.1062E-04  0.1000E+02
      3.266  0.1257E-05  0.1000E+02
      3.322  0.1276E-06  0.1000E+02
      3.377  0.1112E-07  0.1000E+02
      3.433  0.8318E-09  0.1000E+02
      3.489  0.5339E-10  0.1000E+02
      3.544  0.2940E-11  0.1000E+02
      3.600  0.1438E-12  0.1000E+02
      3.655  0.0000E+00  0.1000E+02
      3.711  0.0000E+00  0.1000E+02
      3.767  0.0000E+00  0.1000E+02
      3.822  0.0000E+00  0.1000E+02
      3.878  0.0000E+00  0.1000E+02
      3.933  0.0000E+00  0.1000E+02
      3.989  0.0000E+00  0.1000E+02
      4.044  0.0000E+00  0.1000E+02
      4.100  0.0000E+00  0.1000E+02
      4.156  0.0000E+00  0.1000E+02
      4.211  0.0000E+00  0.1000E+02
      4.267  0.0000E+00  0.1000E+02
      4.322  0.0000E+00  0.1000E+02
      4.378  0.0000E+00  0.1000E+02
      4.433  0.0000E+00  0.1000E+02
