    2    2    1    1
  0.1213200E+03  0.6740000E-09  0.6000000E-09  0.6000000E-09  0.5000000E-15
  1.00000000000000005E-004
  CAR 
 h2                                      
      2      1      5

  0.0000000E+00  0.0000000E+00  0.0000000E+00  0.1000000E+01
    1      -10.239944   1.000000
    2       -0.427671   0.000000
    3        0.854285   0.000000
    4        2.433439   0.000000
    5        2.433439   0.000000
