 running on    1 total cores
 distrk:  each k-point on    1 cores,    1 groups
 distr:  one band on    1 cores,    1 groups
 using from now: INCAR     
 vasp.5.4.1 24Jun15 (build Feb 18 2016 15:14:50) complex                         
 POSCAR found :  1 types and       2 ions
 scaLAPACK is switched off
 LDA part: xc-table for Pade appr. of Perdew
 POSCAR, INCAR and KPOINTS ok, starting setup
 WARNING: small aliasing (wrap around) errors must be expected
 FFT: planning ...
 WAVECAR not read
 entering main loop
       N       E                     dE             d eps       ncg     rms          rms(c)
DAV:   1    -0.339141036500E+01   -0.33914E+01   -0.43663E+02    10   0.120E+02
DAV:   2    -0.735414350052E+01   -0.39627E+01   -0.39627E+01    20   0.359E+01
DAV:   3    -0.735832854590E+01   -0.41850E-02   -0.41850E-02    15   0.161E+00
DAV:   4    -0.735832961304E+01   -0.10671E-05   -0.10672E-05    10   0.283E-02
DAV:   5    -0.735832961910E+01   -0.60611E-08   -0.60624E-08    20   0.205E-03    0.453E+00
DAV:   6    -0.693001728392E+01    0.42831E+00   -0.21881E-01    10   0.212E+00    0.250E+00
DAV:   7    -0.669823922006E+01    0.23178E+00   -0.55072E-01    10   0.339E+00    0.339E-01
DAV:   8    -0.670384221980E+01   -0.56030E-02   -0.81352E-03    10   0.371E-01    0.265E-01
DAV:   9    -0.670104852837E+01    0.27937E-02   -0.51484E-03    10   0.309E-01    0.573E-02
DAV:  10    -0.670336771129E+01   -0.23192E-02   -0.79398E-04    10   0.125E-01    0.264E-02
DAV:  11    -0.670351776131E+01   -0.15005E-03   -0.85258E-06    10   0.204E-02    0.151E-02
DAV:  12    -0.670395222216E+01   -0.43446E-03   -0.97144E-05    10   0.431E-02    0.296E-03
DAV:  13    -0.670397029052E+01   -0.18068E-04   -0.21703E-06    10   0.604E-03
   1 F= -.67039703E+01 E0= -.67039703E+01  d E =-.220460E-10
 writing wavefunctions
