<?xml version="1.0" encoding="ISO-8859-1"?>
<modeling>
 <generator>
  <i name="program" type="string">vasp </i>
  <i name="version" type="string">5.4.1  </i>
  <i name="subversion" type="string">24Jun15 (build Feb 18 2016 15:14:50) complex                          parallel </i>
  <i name="platform" type="string">IFC91_ompi </i>
  <i name="date" type="string">2016 02 22 </i>
  <i name="time" type="string">10:59:19 </i>
 </generator>
 <incar>
  <i type="string" name="SYSTEM"> h2</i>
  <i type="string" name="PREC">normal</i>
  <i type="int" name="NELM">  1000</i>
  <i type="int" name="IBRION">     2</i>
  <i type="int" name="ISMEAR">     0</i>
  <i type="logical" name="LSCALAPACK"> F  </i>
  <v type="int" name="KPOINT_BSE">    -1     0     0     0</v>
  <i type="int" name="NELM">  1000</i>
 </incar>
 <kpoints>
  <varray name="kpointlist" >
   <v>       0.00000000       0.00000000       0.00000000 </v>
  </varray>
  <varray name="weights" >
   <v>       1.00000000 </v>
  </varray>
 </kpoints>
 <parameters>
  <separator name="general" >
   <i type="string" name="SYSTEM">h2</i>
   <i type="logical" name="LCOMPAT"> F  </i>
  </separator>
  <separator name="electronic" >
   <i type="string" name="PREC">normal</i>
   <i name="ENMAX">    250.00000000</i>
   <i name="ENAUG">    400.00000000</i>
   <i name="EDIFF">      0.00010000</i>
   <i type="int" name="IALGO">    38</i>
   <i type="int" name="IWAVPR">    10</i>
   <i type="int" name="NBANDS">     5</i>
   <i name="NELECT">      2.00000000</i>
   <i type="int" name="TURBO">     0</i>
   <i type="int" name="IRESTART">     0</i>
   <i type="int" name="NREBOOT">     0</i>
   <i type="int" name="NMIN">     0</i>
   <i name="EREF">      0.00000000</i>
   <separator name="electronic smearing" >
    <i type="int" name="ISMEAR">     0</i>
    <i name="SIGMA">      0.20000000</i>
    <i name="KSPACING">      0.50000000</i>
    <i type="logical" name="KGAMMA"> T  </i>
   </separator>
   <separator name="electronic projectors" >
    <i type="logical" name="LREAL"> F  </i>
    <v name="ROPT">      0.00000000</v>
    <i type="int" name="LMAXPAW">  -100</i>
    <i type="int" name="LMAXMIX">     2</i>
    <i type="logical" name="NLSPLINE"> F  </i>
   </separator>
   <separator name="electronic startup" >
    <i type="int" name="ISTART">     0</i>
    <i type="int" name="ICHARG">     2</i>
    <i type="int" name="INIWAV">     1</i>
   </separator>
   <separator name="electronic spin" >
    <i type="int" name="ISPIN">     1</i>
    <i type="logical" name="LNONCOLLINEAR"> F  </i>
    <v name="MAGMOM">      1.00000000      1.00000000</v>
    <i name="NUPDOWN">     -1.00000000</i>
    <i type="logical" name="LSORBIT"> F  </i>
    <v name="SAXIS">      0.00000000      0.00000000      1.00000000</v>
    <i type="logical" name="LSPIRAL"> F  </i>
    <v name="QSPIRAL">      0.00000000      0.00000000      0.00000000</v>
    <i type="logical" name="LZEROZ"> F  </i>
   </separator>
   <separator name="electronic exchange-correlation" >
    <i type="logical" name="LASPH"> F  </i>
    <i type="logical" name="LMETAGGA"> F  </i>
   </separator>
   <separator name="electronic convergence" >
    <i type="int" name="NELM">  1000</i>
    <i type="int" name="NELMDL">    -5</i>
    <i type="int" name="NELMIN">     2</i>
    <i name="ENINI">    250.00000000</i>
    <separator name="electronic convergence detail" >
     <i type="logical" name="LDIAG"> T  </i>
     <i type="logical" name="LSUBROT"> F  </i>
     <i name="WEIMIN">      0.00000000</i>
     <i name="EBREAK">      0.00000500</i>
     <i name="DEPER">      0.30000000</i>
     <i type="int" name="NRMM">     4</i>
     <i name="TIME">      0.40000000</i>
    </separator>
   </separator>
   <separator name="electronic mixer" >
    <i name="AMIX">      0.40000000</i>
    <i name="BMIX">      1.00000000</i>
    <i name="AMIN">      0.10000000</i>
    <i name="AMIX_MAG">      1.60000000</i>
    <i name="BMIX_MAG">      1.00000000</i>
    <separator name="electronic mixer details" >
     <i type="int" name="IMIX">     4</i>
     <i type="logical" name="MIXFIRST"> F  </i>
     <i type="int" name="MAXMIX">   -45</i>
     <i name="WC">    100.00000000</i>
     <i type="int" name="INIMIX">     1</i>
     <i type="int" name="MIXPRE">     1</i>
     <i type="int" name="MREMOVE">     5</i>
    </separator>
   </separator>
   <separator name="electronic dipolcorrection" >
    <i type="logical" name="LDIPOL"> F  </i>
    <i type="logical" name="LMONO"> F  </i>
    <i type="int" name="IDIPOL">     0</i>
    <i name="EPSILON">      1.00000000</i>
    <v name="DIPOL">   -100.00000000   -100.00000000   -100.00000000</v>
    <i name="EFIELD">      0.00000000</i>
   </separator>
  </separator>
  <separator name="grids" >
   <i type="int" name="NGX">    28</i>
   <i type="int" name="NGY">    24</i>
   <i type="int" name="NGZ">    24</i>
   <i type="int" name="NGXF">    56</i>
   <i type="int" name="NGYF">    48</i>
   <i type="int" name="NGZF">    48</i>
   <i type="logical" name="ADDGRID"> F  </i>
  </separator>
  <separator name="ionic" >
   <i type="int" name="NSW">     0</i>
   <i type="int" name="IBRION">    -1</i>
   <i type="int" name="ISIF">     2</i>
   <i name="PSTRESS">      0.00000000</i>
   <i name="EDIFFG">      0.00100000</i>
   <i type="int" name="NFREE">     1</i>
   <i name="POTIM">      0.50000000</i>
   <i name="SMASS">     -3.00000000</i>
   <i name="SCALEE">      1.00000000</i>
  </separator>
  <separator name="ionic md" >
   <i name="TEBEG">      0.00010000</i>
   <i name="TEEND">      0.00010000</i>
   <i type="int" name="NBLOCK">     1</i>
   <i type="int" name="KBLOCK">     1</i>
   <i type="int" name="NPACO">   256</i>
   <i name="APACO">     16.00000000</i>
  </separator>
  <separator name="symmetry" >
   <i type="int" name="ISYM">     2</i>
   <i name="SYMPREC">      0.00001000</i>
  </separator>
  <separator name="dos" >
   <i type="logical" name="LORBIT"> T  </i>
   <v name="RWIGS">     -1.00000000</v>
   <i type="int" name="NEDOS">   301</i>
   <i name="EMIN">     10.00000000</i>
   <i name="EMAX">    -10.00000000</i>
   <i name="EFERMI">      0.00000000</i>
  </separator>
  <separator name="writing" >
   <i type="int" name="NWRITE">     2</i>
   <i type="logical" name="LWAVE"> T  </i>
   <i type="logical" name="LCHARG"> T  </i>
   <i type="logical" name="LPARD"> F  </i>
   <i type="logical" name="LVTOT"> F  </i>
   <i type="logical" name="LVHAR"> F  </i>
   <i type="logical" name="LELF"> F  </i>
   <i type="logical" name="LOPTICS"> F  </i>
   <v name="STM">      0.00000000      0.00000000      0.00000000      0.00000000      0.00000000      0.00000000      0.00000000</v>
  </separator>
  <separator name="performance" >
   <i type="int" name="NPAR">     1</i>
   <i type="int" name="NSIM">     4</i>
   <i type="int" name="NBLK">    -1</i>
   <i type="logical" name="LPLANE"> T  </i>
   <i type="logical" name="LSCALAPACK"> F  </i>
   <i type="logical" name="LSCAAWARE"> F  </i>
   <i type="logical" name="LSCALU"> F  </i>
   <i type="logical" name="LASYNC"> F  </i>
   <i type="logical" name="LORBITALREAL"> F  </i>
  </separator>
  <separator name="miscellaneous" >
   <i type="int" name="IDIOT">     3</i>
   <i type="logical" name="LMUSIC"> F  </i>
   <v name="POMASS">      1.00000000</v>
   <v name="DARWINR">      0.00000000</v>
   <v name="DARWINV">      1.00000000</v>
   <i type="logical" name="LCORR"> T  </i>
  </separator>
  <i type="logical" name="GGA_COMPAT"> T  </i>
  <i type="logical" name="LBERRY"> F  </i>
  <i type="int" name="ICORELEVEL">     0</i>
  <i type="logical" name="LDAU"> F  </i>
  <i type="int" name="I_CONSTRAINED_M">     0</i>
  <separator name="electronic exchange-correlation" >
   <i type="string" name="GGA">--</i>
   <i type="int" name="VOSKOWN">     0</i>
   <i type="logical" name="LHFCALC"> F  </i>
   <i type="string" name="PRECFOCK"></i>
   <i type="logical" name="LSYMGRAD"> F  </i>
   <i type="logical" name="LHFONE"> F  </i>
   <i type="logical" name="LRHFCALC"> F  </i>
   <i type="logical" name="LTHOMAS"> F  </i>
   <i type="logical" name="LMODELHF"> F  </i>
   <i name="ENCUT4O">     -1.00000000</i>
   <i type="int" name="EXXOEP">     0</i>
   <i type="int" name="FOURORBIT">     0</i>
   <i name="AEXX">      0.00000000</i>
   <i name="HFALPHA">      0.00000000</i>
   <i name="MCALPHA">      0.00000000</i>
   <i name="ALDAX">      1.00000000</i>
   <i name="AGGAX">      1.00000000</i>
   <i name="ALDAC">      1.00000000</i>
   <i name="AGGAC">      1.00000000</i>
   <i type="int" name="NKREDX">     1</i>
   <i type="int" name="NKREDY">     1</i>
   <i type="int" name="NKREDZ">     1</i>
   <i type="logical" name="SHIFTRED"> F  </i>
   <i type="logical" name="ODDONLY"> F  </i>
   <i type="logical" name="EVENONLY"> F  </i>
   <i type="int" name="LMAXFOCK">     0</i>
   <i type="int" name="NMAXFOCKAE">     0</i>
   <i type="logical" name="LFOCKAEDFT"> F  </i>
   <i name="HFSCREEN">      0.00000000</i>
   <i name="HFSCREENC">      0.00000000</i>
   <i type="int" name="NBANDSGWLOW">     0</i>
  </separator>
  <separator name="vdW DFT" >
   <i type="logical" name="LUSE_VDW"> F  </i>
   <i name="Zab_VDW">     -0.84910000</i>
   <i name="PARAM1">      0.12340000</i>
   <i name="PARAM2">      1.00000000</i>
   <i name="PARAM3">      0.00000000</i>
  </separator>
  <separator name="model GW" >
   <i type="int" name="MODEL_GW">     0</i>
   <i name="MODEL_EPS0">     72.79200000</i>
   <i name="MODEL_ALPHA">      1.00000000</i>
  </separator>
  <separator name="linear response parameters" >
   <i type="logical" name="LEPSILON"> F  </i>
   <i type="logical" name="LRPA"> F  </i>
   <i type="logical" name="LNABLA"> F  </i>
   <i type="logical" name="LVEL"> F  </i>
   <i type="int" name="KINTER">     0</i>
   <i name="CSHIFT">      0.10000000</i>
   <i name="OMEGAMAX">     -1.00000000</i>
   <i name="DEG_THRESHOLD">      0.00200000</i>
  </separator>
  <separator name="orbital magnetization" >
   <i type="logical" name="NUCIND"> F  </i>
   <v name="MAGPOS">      0.00000000      0.00000000      0.00000000</v>
   <i type="logical" name="LNICSALL"> T  </i>
   <i type="logical" name="ORBITALMAG"> F  </i>
   <i type="logical" name="LMAGBLOCH"> F  </i>
   <i type="logical" name="LCHIMAG"> F  </i>
   <i type="logical" name="LGAUGE"> T  </i>
   <i type="int" name="MAGATOM">     0</i>
   <v name="MAGDIPOL">      0.00000000      0.00000000      0.00000000</v>
   <v name="AVECCONST">      0.00000000      0.00000000      0.00000000</v>
  </separator>
  <separator name="response functions" >
   <i type="logical" name="LADDER"> F  </i>
   <i type="logical" name="LFXC"> F  </i>
   <i type="logical" name="LHARTREE"> T  </i>
   <i type="int" name="IBSE">     0</i>
   <v type="int" name="KPOINT">    -1     0     0     0</v>
   <i type="logical" name="LTCTE"> F  </i>
   <i type="logical" name="LTETE"> F  </i>
   <i type="logical" name="LTRIPLET"> F  </i>
   <i type="logical" name="LFXCEPS"> F  </i>
   <i type="logical" name="LFXHEG"> F  </i>
   <i type="int" name="NATURALO">     0</i>
   <i type="logical" name="L2ORDER"> F  </i>
   <i type="logical" name="LUSEW"> F  </i>
   <i name="ENCUTGW">     -2.00000000</i>
   <i name="ENCUTGWSOFT">     -2.00000000</i>
   <i name="ENCUTLF">     -1.00000000</i>
   <i type="int" name="LMAXMP2">    -1</i>
   <i name="SCISSOR">      0.00000000</i>
   <i type="int" name="NOMEGA">     0</i>
   <i type="int" name="NOMEGAR">     0</i>
   <i type="int" name="NBANDSGW">    -1</i>
   <i type="int" name="NBANDSO">    -1</i>
   <i type="int" name="NBANDSV">    -1</i>
   <i type="int" name="NELM">  1000</i>
   <i type="int" name="NELMHF">     1</i>
   <i type="int" name="DIM">     3</i>
   <i type="int" name="ANTIRES">     0</i>
   <i name="OMEGAMAX">    -30.00000000</i>
   <i name="OMEGAMIN">    -30.00000000</i>
   <i name="OMEGATL">   -200.00000000</i>
   <i type="int" name="OMEGAGRID">     0</i>
   <i name="CSHIFT">     -0.10000000</i>
   <i type="logical" name="SELFENERGY"> F  </i>
   <i type="logical" name="LSPECTRAL"> F  </i>
   <i type="logical" name="LSPECTRALGW"> F  </i>
   <i type="logical" name="LSINGLES"> F  </i>
   <i type="logical" name="LFERMIGW"> F  </i>
   <i type="logical" name="ODDONLYGW"> F  </i>
   <i type="logical" name="EVENONLYGW"> F  </i>
   <i type="int" name="NKREDLFX">     1</i>
   <i type="int" name="NKREDLFY">     1</i>
   <i type="int" name="NKREDLFZ">     1</i>
   <i type="int" name="MAXMEM">  1800</i>
   <i type="int" name="TELESCOPE">     0</i>
   <i type="int" name="TAUPAR">     1</i>
   <i type="int" name="OMEGAPAR">    -1</i>
   <i name="LAMBDA">      1.00000000</i>
  </separator>
  <separator name="External order field" >
   <i name="OFIELD_KAPPA">      0.00000000</i>
   <v name="OFIELD_K">      0.00000000      0.00000000      0.00000000</v>
   <i name="OFIELD_Q6_NEAR">      0.00000000</i>
   <i name="OFIELD_Q6_FAR">      0.00000000</i>
   <i name="OFIELD_A">      0.00000000</i>
  </separator>
 </parameters>
 <atominfo>
  <atoms>       2 </atoms>
  <types>       1 </types>
  <array name="atoms" >
   <dimension dim="1">ion</dimension>
   <field type="string">element</field>
   <field type="int">atomtype</field>
   <set>
    <rc><c>H </c><c>   1</c></rc>
    <rc><c>H </c><c>   1</c></rc>
   </set>
  </array>
  <array name="atomtypes" >
   <dimension dim="1">type</dimension>
   <field type="int">atomspertype</field>
   <field type="string">element</field>
   <field>mass</field>
   <field>valence</field>
   <field type="string">pseudopotential</field>
   <set>
    <rc><c>   2</c><c>H </c><c>      1.00000000</c><c>      1.00000000</c><c>  PAW_PBE H 15Jun2001                   </c></rc>
   </set>
  </array>
 </atominfo>
 <structure name="initialpos" >
  <crystal>
   <varray name="basis" >
    <v>       6.74000000       0.00000000       0.00000000 </v>
    <v>       0.00000000       6.00000000       0.00000000 </v>
    <v>       0.00000000       0.00000000       6.00000000 </v>
   </varray>
   <i name="volume">    242.64000000 </i>
   <varray name="rec_basis" >
    <v>       0.14836795       0.00000000       0.00000000 </v>
    <v>       0.00000000       0.16666667       0.00000000 </v>
    <v>       0.00000000       0.00000000       0.16666667 </v>
   </varray>
  </crystal>
  <varray name="positions" >
   <v>       0.44510386       0.50000000       0.50000000 </v>
   <v>       0.55489614       0.50000000       0.50000000 </v>
  </varray>
 </structure>
 <calculation>
  <scstep>
   <time name="dav">    0.05    0.05</time>
   <time name="total">    0.19    0.19</time>
   <energy>
    <i name="alphaZ">      0.04016102 </i>
    <i name="ewald">      6.46492164 </i>
    <i name="hartreedc">    -16.22960080 </i>
    <i name="XCdc">      4.35673025 </i>
    <i name="pawpsdc">      4.26805487 </i>
    <i name="pawaedc">     -4.28581044 </i>
    <i name="eentropy">     -0.00000000 </i>
    <i name="bandstr">    -22.80910357 </i>
    <i name="atom">     24.80323665 </i>
    <i name="e_fr_energy">     -3.39141036 </i>
    <i name="e_wo_entrp">     -3.39141036 </i>
    <i name="e_0_energy">     -3.39141036 </i>
   </energy>
  </scstep>
  <scstep>
   <time name="dav">    0.08    0.08</time>
   <time name="total">    0.09    0.08</time>
   <energy>
    <i name="e_fr_energy">     -7.35414350 </i>
    <i name="e_wo_entrp">     -7.35414350 </i>
    <i name="e_0_energy">     -7.35414350 </i>
   </energy>
  </scstep>
  <scstep>
   <time name="dav">    0.06    0.06</time>
   <time name="total">    0.06    0.06</time>
   <energy>
    <i name="e_fr_energy">     -7.35832855 </i>
    <i name="e_wo_entrp">     -7.35832855 </i>
    <i name="e_0_energy">     -7.35832855 </i>
   </energy>
  </scstep>
  <scstep>
   <time name="dav">    0.05    0.05</time>
   <time name="total">    0.05    0.05</time>
   <energy>
    <i name="e_fr_energy">     -7.35832961 </i>
    <i name="e_wo_entrp">     -7.35832961 </i>
    <i name="e_0_energy">     -7.35832961 </i>
   </energy>
  </scstep>
  <scstep>
   <time name="dav">    0.08    0.07</time>
   <time name="total">    0.10    0.09</time>
   <energy>
    <i name="e_fr_energy">     -7.35832962 </i>
    <i name="e_wo_entrp">     -7.35832962 </i>
    <i name="e_0_energy">     -7.35832962 </i>
   </energy>
  </scstep>
  <scstep>
   <time name="dav">    0.04    0.04</time>
   <time name="total">    0.20    0.19</time>
   <energy>
    <i name="e_fr_energy">     -6.93001728 </i>
    <i name="e_wo_entrp">     -6.93001728 </i>
    <i name="e_0_energy">     -6.93001728 </i>
   </energy>
  </scstep>
  <scstep>
   <time name="dav">    0.04    0.04</time>
   <time name="total">    0.20    0.19</time>
   <energy>
    <i name="e_fr_energy">     -6.69823922 </i>
    <i name="e_wo_entrp">     -6.69823922 </i>
    <i name="e_0_energy">     -6.69823922 </i>
   </energy>
  </scstep>
  <scstep>
   <time name="dav">    0.05    0.04</time>
   <time name="total">    0.19    0.19</time>
   <energy>
    <i name="e_fr_energy">     -6.70384222 </i>
    <i name="e_wo_entrp">     -6.70384222 </i>
    <i name="e_0_energy">     -6.70384222 </i>
   </energy>
  </scstep>
  <scstep>
   <time name="dav">    0.05    0.04</time>
   <time name="total">    0.20    0.19</time>
   <energy>
    <i name="e_fr_energy">     -6.70104853 </i>
    <i name="e_wo_entrp">     -6.70104853 </i>
    <i name="e_0_energy">     -6.70104853 </i>
   </energy>
  </scstep>
  <scstep>
   <time name="dav">    0.04    0.04</time>
   <time name="total">    0.18    0.18</time>
   <energy>
    <i name="e_fr_energy">     -6.70336771 </i>
    <i name="e_wo_entrp">     -6.70336771 </i>
    <i name="e_0_energy">     -6.70336771 </i>
   </energy>
  </scstep>
  <scstep>
   <time name="dav">    0.05    0.05</time>
   <time name="total">    0.20    0.20</time>
   <energy>
    <i name="e_fr_energy">     -6.70351776 </i>
    <i name="e_wo_entrp">     -6.70351776 </i>
    <i name="e_0_energy">     -6.70351776 </i>
   </energy>
  </scstep>
  <scstep>
   <time name="dav">    0.05    0.04</time>
   <time name="total">    0.20    0.20</time>
   <energy>
    <i name="e_fr_energy">     -6.70395222 </i>
    <i name="e_wo_entrp">     -6.70395222 </i>
    <i name="e_0_energy">     -6.70395222 </i>
   </energy>
  </scstep>
  <scstep>
   <time name="dav">    0.05    0.05</time>
   <time name="total">    0.18    0.18</time>
   <energy>
    <i name="alphaZ">      0.04016102 </i>
    <i name="ewald">      6.46492164 </i>
    <i name="hartreedc">    -22.77773466 </i>
    <i name="XCdc">      5.29163069 </i>
    <i name="pawpsdc">     31.65536578 </i>
    <i name="pawaedc">    -31.70166423 </i>
    <i name="eentropy">     -0.00000000 </i>
    <i name="bandstr">    -20.47988719 </i>
    <i name="atom">     24.80323665 </i>
    <i name="e_fr_energy">     -6.70397029 </i>
    <i name="e_wo_entrp">     -6.70397029 </i>
    <i name="e_0_energy">     -6.70397029 </i>
   </energy>
  </scstep>
  <structure>
   <crystal>
    <varray name="basis" >
     <v>       6.74000000       0.00000000       0.00000000 </v>
     <v>       0.00000000       6.00000000       0.00000000 </v>
     <v>       0.00000000       0.00000000       6.00000000 </v>
    </varray>
    <i name="volume">    242.64000000 </i>
    <varray name="rec_basis" >
     <v>       0.14836795       0.00000000       0.00000000 </v>
     <v>       0.00000000       0.16666667       0.00000000 </v>
     <v>       0.00000000       0.00000000       0.16666667 </v>
    </varray>
   </crystal>
   <varray name="positions" >
    <v>       0.44510386       0.50000000       0.50000000 </v>
    <v>       0.55489614       0.50000000       0.50000000 </v>
   </varray>
  </structure>
  <varray name="forces" >
   <v>      -0.39096599      -0.00000000       0.00000000 </v>
   <v>       0.39096599       0.00000000      -0.00000000 </v>
  </varray>
  <varray name="stress" >
   <v>      -1.08312954      -0.00000000      -0.00000000 </v>
   <v>       0.00000000      -4.04452549       0.00000000 </v>
   <v>       0.00000000       0.00000000      -4.04452549 </v>
  </varray>
  <energy>
   <i name="e_fr_energy">     -6.70397029 </i>
   <i name="e_wo_entrp">     -6.70397029 </i>
   <i name="e_0_energy">     -0.00000000 </i>
  </energy>
  <time name="totalsc">    2.54    2.50</time>
  <eigenvalues>
   <array>
    <dimension dim="1">band</dimension>
    <dimension dim="2">kpoint</dimension>
    <dimension dim="3">spin</dimension>
    <field>eigene</field>
    <field>occ</field>
    <set>
     <set comment="spin 1">
      <set comment="kpoint 1">
       <r>  -10.2399    1.0000 </r>
       <r>   -0.4277    0.0000 </r>
       <r>    0.8543    0.0000 </r>
       <r>    2.4334    0.0000 </r>
       <r>    2.4334    0.0000 </r>
      </set>
     </set>
    </set>
   </array>
  </eigenvalues>
  <separator name="orbital magnetization" >
   <v name="MAGDIPOLOUT">      0.00000000      0.00000000      0.00000000</v>
  </separator>
  <dos>
   <i name="efermi">     -9.29429909 </i>
   <total>
    <array>
     <dimension dim="1">gridpoints</dimension>
     <dimension dim="2">spin</dimension>
     <field>energy</field>
     <field>total</field>
     <field>integrated</field>
     <set>
      <set comment="spin 1">
       <r>   -12.2399     0.0000     0.0000 </r>
       <r>   -12.1844     0.0000     0.0000 </r>
       <r>   -12.1288     0.0000     0.0000 </r>
       <r>   -12.0732     0.0000     0.0000 </r>
       <r>   -12.0176     0.0000     0.0000 </r>
       <r>   -11.9621     0.0000     0.0000 </r>
       <r>   -11.9065     0.0000     0.0000 </r>
       <r>   -11.8509     0.0000     0.0000 </r>
       <r>   -11.7953     0.0000     0.0000 </r>
       <r>   -11.7397     0.0000     0.0000 </r>
       <r>   -11.6842     0.0000     0.0000 </r>
       <r>   -11.6286     0.0000     0.0000 </r>
       <r>   -11.5730     0.0000     0.0000 </r>
       <r>   -11.5174     0.0000     0.0000 </r>
       <r>   -11.4619     0.0000     0.0000 </r>
       <r>   -11.4063     0.0000     0.0000 </r>
       <r>   -11.3507     0.0000     0.0000 </r>
       <r>   -11.2951     0.0000     0.0000 </r>
       <r>   -11.2395     0.0000     0.0000 </r>
       <r>   -11.1840     0.0000     0.0000 </r>
       <r>   -11.1284     0.0000     0.0000 </r>
       <r>   -11.0728     0.0000     0.0000 </r>
       <r>   -11.0172     0.0000     0.0000 </r>
       <r>   -10.9617     0.0000     0.0000 </r>
       <r>   -10.9061     0.0000     0.0000 </r>
       <r>   -10.8505     0.0002     0.0000 </r>
       <r>   -10.7949     0.0013     0.0001 </r>
       <r>   -10.7393     0.0059     0.0004 </r>
       <r>   -10.6838     0.0231     0.0017 </r>
       <r>   -10.6282     0.0782     0.0060 </r>
       <r>   -10.5726     0.2269     0.0187 </r>
       <r>   -10.5170     0.5654     0.0501 </r>
       <r>   -10.4614     1.2092     0.1173 </r>
       <r>   -10.4059     2.2203     0.2407 </r>
       <r>   -10.3503     3.5003     0.4352 </r>
       <r>   -10.2947     4.7378     0.6985 </r>
       <r>   -10.2391     5.5060     1.0045 </r>
       <r>   -10.1836     5.4938     1.3099 </r>
       <r>   -10.1280     4.7065     1.5715 </r>
       <r>   -10.0724     3.4618     1.7639 </r>
       <r>   -10.0168     2.1862     1.8854 </r>
       <r>    -9.9612     1.1853     1.9512 </r>
       <r>    -9.9057     0.5518     1.9819 </r>
       <r>    -9.8501     0.2205     1.9942 </r>
       <r>    -9.7945     0.0757     1.9984 </r>
       <r>    -9.7389     0.0223     1.9996 </r>
       <r>    -9.6834     0.0056     1.9999 </r>
       <r>    -9.6278     0.0012     2.0000 </r>
       <r>    -9.5722     0.0002     2.0000 </r>
       <r>    -9.5166     0.0000     2.0000 </r>
       <r>    -9.4610     0.0000     2.0000 </r>
       <r>    -9.4055     0.0000     2.0000 </r>
       <r>    -9.3499     0.0000     2.0000 </r>
       <r>    -9.2943     0.0000     2.0000 </r>
       <r>    -9.2387     0.0000     2.0000 </r>
       <r>    -9.1832     0.0000     2.0000 </r>
       <r>    -9.1276     0.0000     2.0000 </r>
       <r>    -9.0720     0.0000     2.0000 </r>
       <r>    -9.0164     0.0000     2.0000 </r>
       <r>    -8.9608     0.0000     2.0000 </r>
       <r>    -8.9053     0.0000     2.0000 </r>
       <r>    -8.8497     0.0000     2.0000 </r>
       <r>    -8.7941     0.0000     2.0000 </r>
       <r>    -8.7385     0.0000     2.0000 </r>
       <r>    -8.6830     0.0000     2.0000 </r>
       <r>    -8.6274     0.0000     2.0000 </r>
       <r>    -8.5718     0.0000     2.0000 </r>
       <r>    -8.5162     0.0000     2.0000 </r>
       <r>    -8.4606     0.0000     2.0000 </r>
       <r>    -8.4051     0.0000     2.0000 </r>
       <r>    -8.3495     0.0000     2.0000 </r>
       <r>    -8.2939     0.0000     2.0000 </r>
       <r>    -8.2383     0.0000     2.0000 </r>
       <r>    -8.1828     0.0000     2.0000 </r>
       <r>    -8.1272     0.0000     2.0000 </r>
       <r>    -8.0716     0.0000     2.0000 </r>
       <r>    -8.0160     0.0000     2.0000 </r>
       <r>    -7.9604     0.0000     2.0000 </r>
       <r>    -7.9049     0.0000     2.0000 </r>
       <r>    -7.8493     0.0000     2.0000 </r>
       <r>    -7.7937     0.0000     2.0000 </r>
       <r>    -7.7381     0.0000     2.0000 </r>
       <r>    -7.6826     0.0000     2.0000 </r>
       <r>    -7.6270     0.0000     2.0000 </r>
       <r>    -7.5714     0.0000     2.0000 </r>
       <r>    -7.5158     0.0000     2.0000 </r>
       <r>    -7.4602     0.0000     2.0000 </r>
       <r>    -7.4047     0.0000     2.0000 </r>
       <r>    -7.3491     0.0000     2.0000 </r>
       <r>    -7.2935     0.0000     2.0000 </r>
       <r>    -7.2379     0.0000     2.0000 </r>
       <r>    -7.1824     0.0000     2.0000 </r>
       <r>    -7.1268     0.0000     2.0000 </r>
       <r>    -7.0712     0.0000     2.0000 </r>
       <r>    -7.0156     0.0000     2.0000 </r>
       <r>    -6.9600     0.0000     2.0000 </r>
       <r>    -6.9045     0.0000     2.0000 </r>
       <r>    -6.8489     0.0000     2.0000 </r>
       <r>    -6.7933     0.0000     2.0000 </r>
       <r>    -6.7377     0.0000     2.0000 </r>
       <r>    -6.6821     0.0000     2.0000 </r>
       <r>    -6.6266     0.0000     2.0000 </r>
       <r>    -6.5710     0.0000     2.0000 </r>
       <r>    -6.5154     0.0000     2.0000 </r>
       <r>    -6.4598     0.0000     2.0000 </r>
       <r>    -6.4043     0.0000     2.0000 </r>
       <r>    -6.3487     0.0000     2.0000 </r>
       <r>    -6.2931     0.0000     2.0000 </r>
       <r>    -6.2375     0.0000     2.0000 </r>
       <r>    -6.1819     0.0000     2.0000 </r>
       <r>    -6.1264     0.0000     2.0000 </r>
       <r>    -6.0708     0.0000     2.0000 </r>
       <r>    -6.0152     0.0000     2.0000 </r>
       <r>    -5.9596     0.0000     2.0000 </r>
       <r>    -5.9041     0.0000     2.0000 </r>
       <r>    -5.8485     0.0000     2.0000 </r>
       <r>    -5.7929     0.0000     2.0000 </r>
       <r>    -5.7373     0.0000     2.0000 </r>
       <r>    -5.6817     0.0000     2.0000 </r>
       <r>    -5.6262     0.0000     2.0000 </r>
       <r>    -5.5706     0.0000     2.0000 </r>
       <r>    -5.5150     0.0000     2.0000 </r>
       <r>    -5.4594     0.0000     2.0000 </r>
       <r>    -5.4039     0.0000     2.0000 </r>
       <r>    -5.3483     0.0000     2.0000 </r>
       <r>    -5.2927     0.0000     2.0000 </r>
       <r>    -5.2371     0.0000     2.0000 </r>
       <r>    -5.1815     0.0000     2.0000 </r>
       <r>    -5.1260     0.0000     2.0000 </r>
       <r>    -5.0704     0.0000     2.0000 </r>
       <r>    -5.0148     0.0000     2.0000 </r>
       <r>    -4.9592     0.0000     2.0000 </r>
       <r>    -4.9037     0.0000     2.0000 </r>
       <r>    -4.8481     0.0000     2.0000 </r>
       <r>    -4.7925     0.0000     2.0000 </r>
       <r>    -4.7369     0.0000     2.0000 </r>
       <r>    -4.6813     0.0000     2.0000 </r>
       <r>    -4.6258     0.0000     2.0000 </r>
       <r>    -4.5702     0.0000     2.0000 </r>
       <r>    -4.5146     0.0000     2.0000 </r>
       <r>    -4.4590     0.0000     2.0000 </r>
       <r>    -4.4035     0.0000     2.0000 </r>
       <r>    -4.3479     0.0000     2.0000 </r>
       <r>    -4.2923     0.0000     2.0000 </r>
       <r>    -4.2367     0.0000     2.0000 </r>
       <r>    -4.1811     0.0000     2.0000 </r>
       <r>    -4.1256     0.0000     2.0000 </r>
       <r>    -4.0700     0.0000     2.0000 </r>
       <r>    -4.0144     0.0000     2.0000 </r>
       <r>    -3.9588     0.0000     2.0000 </r>
       <r>    -3.9033     0.0000     2.0000 </r>
       <r>    -3.8477     0.0000     2.0000 </r>
       <r>    -3.7921     0.0000     2.0000 </r>
       <r>    -3.7365     0.0000     2.0000 </r>
       <r>    -3.6809     0.0000     2.0000 </r>
       <r>    -3.6254     0.0000     2.0000 </r>
       <r>    -3.5698     0.0000     2.0000 </r>
       <r>    -3.5142     0.0000     2.0000 </r>
       <r>    -3.4586     0.0000     2.0000 </r>
       <r>    -3.4031     0.0000     2.0000 </r>
       <r>    -3.3475     0.0000     2.0000 </r>
       <r>    -3.2919     0.0000     2.0000 </r>
       <r>    -3.2363     0.0000     2.0000 </r>
       <r>    -3.1807     0.0000     2.0000 </r>
       <r>    -3.1252     0.0000     2.0000 </r>
       <r>    -3.0696     0.0000     2.0000 </r>
       <r>    -3.0140     0.0000     2.0000 </r>
       <r>    -2.9584     0.0000     2.0000 </r>
       <r>    -2.9028     0.0000     2.0000 </r>
       <r>    -2.8473     0.0000     2.0000 </r>
       <r>    -2.7917     0.0000     2.0000 </r>
       <r>    -2.7361     0.0000     2.0000 </r>
       <r>    -2.6805     0.0000     2.0000 </r>
       <r>    -2.6250     0.0000     2.0000 </r>
       <r>    -2.5694     0.0000     2.0000 </r>
       <r>    -2.5138     0.0000     2.0000 </r>
       <r>    -2.4582     0.0000     2.0000 </r>
       <r>    -2.4026     0.0000     2.0000 </r>
       <r>    -2.3471     0.0000     2.0000 </r>
       <r>    -2.2915     0.0000     2.0000 </r>
       <r>    -2.2359     0.0000     2.0000 </r>
       <r>    -2.1803     0.0000     2.0000 </r>
       <r>    -2.1248     0.0000     2.0000 </r>
       <r>    -2.0692     0.0000     2.0000 </r>
       <r>    -2.0136     0.0000     2.0000 </r>
       <r>    -1.9580     0.0000     2.0000 </r>
       <r>    -1.9024     0.0000     2.0000 </r>
       <r>    -1.8469     0.0000     2.0000 </r>
       <r>    -1.7913     0.0000     2.0000 </r>
       <r>    -1.7357     0.0000     2.0000 </r>
       <r>    -1.6801     0.0000     2.0000 </r>
       <r>    -1.6246     0.0000     2.0000 </r>
       <r>    -1.5690     0.0000     2.0000 </r>
       <r>    -1.5134     0.0000     2.0000 </r>
       <r>    -1.4578     0.0000     2.0000 </r>
       <r>    -1.4022     0.0000     2.0000 </r>
       <r>    -1.3467     0.0000     2.0000 </r>
       <r>    -1.2911     0.0000     2.0000 </r>
       <r>    -1.2355     0.0000     2.0000 </r>
       <r>    -1.1799     0.0000     2.0000 </r>
       <r>    -1.1244     0.0000     2.0000 </r>
       <r>    -1.0688     0.0001     2.0000 </r>
       <r>    -1.0132     0.0005     2.0000 </r>
       <r>    -0.9576     0.0026     2.0002 </r>
       <r>    -0.9020     0.0111     2.0008 </r>
       <r>    -0.8465     0.0408     2.0031 </r>
       <r>    -0.7909     0.1288     2.0102 </r>
       <r>    -0.7353     0.3488     2.0296 </r>
       <r>    -0.6797     0.8113     2.0747 </r>
       <r>    -0.6242     1.6200     2.1647 </r>
       <r>    -0.5686     2.7772     2.3191 </r>
       <r>    -0.5130     4.0878     2.5463 </r>
       <r>    -0.4574     5.1660     2.8334 </r>
       <r>    -0.4018     5.6053     3.1449 </r>
       <r>    -0.3463     5.2218     3.4351 </r>
       <r>    -0.2907     4.1767     3.6673 </r>
       <r>    -0.2351     2.8683     3.8267 </r>
       <r>    -0.1795     1.6912     3.9207 </r>
       <r>    -0.1240     0.8561     3.9683 </r>
       <r>    -0.0684     0.3721     3.9889 </r>
       <r>    -0.0128     0.1388     3.9966 </r>
       <r>     0.0428     0.0445     3.9991 </r>
       <r>     0.0984     0.0122     3.9998 </r>
       <r>     0.1539     0.0029     4.0000 </r>
       <r>     0.2095     0.0007     4.0000 </r>
       <r>     0.2651     0.0006     4.0000 </r>
       <r>     0.3207     0.0024     4.0002 </r>
       <r>     0.3762     0.0101     4.0007 </r>
       <r>     0.4318     0.0376     4.0028 </r>
       <r>     0.4874     0.1199     4.0095 </r>
       <r>     0.5430     0.3282     4.0277 </r>
       <r>     0.5986     0.7710     4.0706 </r>
       <r>     0.6541     1.5551     4.1570 </r>
       <r>     0.7097     2.6929     4.3067 </r>
       <r>     0.7653     4.0037     4.5292 </r>
       <r>     0.8209     5.1108     4.8132 </r>
       <r>     0.8765     5.6014     5.1245 </r>
       <r>     0.9320     5.2710     5.4175 </r>
       <r>     0.9876     4.2586     5.6542 </r>
       <r>     1.0432     2.9541     5.8184 </r>
       <r>     1.0988     1.7593     5.9161 </r>
       <r>     1.1543     0.8996     5.9661 </r>
       <r>     1.2099     0.3949     5.9881 </r>
       <r>     1.2655     0.1488     5.9964 </r>
       <r>     1.3211     0.0482     5.9990 </r>
       <r>     1.3767     0.0134     5.9998 </r>
       <r>     1.4322     0.0032     6.0000 </r>
       <r>     1.4878     0.0007     6.0000 </r>
       <r>     1.5434     0.0001     6.0000 </r>
       <r>     1.5990     0.0000     6.0000 </r>
       <r>     1.6545     0.0000     6.0000 </r>
       <r>     1.7101     0.0000     6.0000 </r>
       <r>     1.7657     0.0001     6.0000 </r>
       <r>     1.8213     0.0005     6.0000 </r>
       <r>     1.8769     0.0024     6.0002 </r>
       <r>     1.9324     0.0113     6.0008 </r>
       <r>     1.9880     0.0446     6.0033 </r>
       <r>     2.0436     0.1513     6.0117 </r>
       <r>     2.0992     0.4410     6.0362 </r>
       <r>     2.1547     1.1035     6.0975 </r>
       <r>     2.2103     2.3707     6.2293 </r>
       <r>     2.2659     4.3723     6.4723 </r>
       <r>     2.3215     6.9236     6.8571 </r>
       <r>     2.3771     9.4130     7.3802 </r>
       <r>     2.4326    10.9876     7.9909 </r>
       <r>     2.4882    11.0119     8.6029 </r>
       <r>     2.5438     9.4756     9.1296 </r>
       <r>     2.5994     7.0006     9.5186 </r>
       <r>     2.6549     4.4405     9.7654 </r>
       <r>     2.7105     2.4183     9.8998 </r>
       <r>     2.7661     1.1307     9.9627 </r>
       <r>     2.8217     0.4539     9.9879 </r>
       <r>     2.8773     0.1564     9.9966 </r>
       <r>     2.9328     0.0463     9.9992 </r>
       <r>     2.9884     0.0118     9.9998 </r>
       <r>     3.0440     0.0026    10.0000 </r>
       <r>     3.0996     0.0005    10.0000 </r>
       <r>     3.1551     0.0001    10.0000 </r>
       <r>     3.2107     0.0000    10.0000 </r>
       <r>     3.2663     0.0000    10.0000 </r>
       <r>     3.3219     0.0000    10.0000 </r>
       <r>     3.3775     0.0000    10.0000 </r>
       <r>     3.4330     0.0000    10.0000 </r>
       <r>     3.4886     0.0000    10.0000 </r>
       <r>     3.5442     0.0000    10.0000 </r>
       <r>     3.5998     0.0000    10.0000 </r>
       <r>     3.6553     0.0000    10.0000 </r>
       <r>     3.7109     0.0000    10.0000 </r>
       <r>     3.7665     0.0000    10.0000 </r>
       <r>     3.8221     0.0000    10.0000 </r>
       <r>     3.8777     0.0000    10.0000 </r>
       <r>     3.9332     0.0000    10.0000 </r>
       <r>     3.9888     0.0000    10.0000 </r>
       <r>     4.0444     0.0000    10.0000 </r>
       <r>     4.1000     0.0000    10.0000 </r>
       <r>     4.1555     0.0000    10.0000 </r>
       <r>     4.2111     0.0000    10.0000 </r>
       <r>     4.2667     0.0000    10.0000 </r>
       <r>     4.3223     0.0000    10.0000 </r>
       <r>     4.3779     0.0000    10.0000 </r>
       <r>     4.4334     0.0000    10.0000 </r>
      </set>
     </set>
    </array>
   </total>
  </dos>
 </calculation>
 <structure name="finalpos" >
  <crystal>
   <varray name="basis" >
    <v>       6.74000000       0.00000000       0.00000000 </v>
    <v>       0.00000000       6.00000000       0.00000000 </v>
    <v>       0.00000000       0.00000000       6.00000000 </v>
   </varray>
   <i name="volume">    242.64000000 </i>
   <varray name="rec_basis" >
    <v>       0.14836795       0.00000000       0.00000000 </v>
    <v>       0.00000000       0.16666667       0.00000000 </v>
    <v>       0.00000000       0.00000000       0.16666667 </v>
   </varray>
  </crystal>
  <varray name="positions" >
   <v>       0.44510386       0.50000000       0.50000000 </v>
   <v>       0.55489614       0.50000000       0.50000000 </v>
  </varray>
 </structure>
</modeling>
