 running on    4 total cores
 distrk:  each k-point on    4 cores,    1 groups
 distr:  one band on    1 cores,    4 groups
 using from now: INCAR     
 vasp.5.4.1 24Jun15 (build Oct 23 2015 09:54:11) complex                         
 POSCAR found :  2 types and       3 ions
 LDA part: xc-table for Pade appr. of Perdew
 POSCAR, INCAR and KPOINTS ok, starting setup
 WARNING: small aliasing (wrap around) errors must be expected
 FFT: planning ...
 WAVECAR not read
 entering main loop
       N       E                     dE             d eps       ncg     rms          rms(c)
DAV:   1     0.603563003800E+02    0.60356E+02   -0.15768E+03    24   0.357E+02
DAV:   2    -0.551635981277E+00   -0.60908E+02   -0.60908E+02    24   0.116E+02
DAV:   3    -0.156740005098E+02   -0.15122E+02   -0.15122E+02    16   0.709E+01
DAV:   4    -0.162857665576E+02   -0.61177E+00   -0.61177E+00    16   0.168E+01
DAV:   5    -0.162932247039E+02   -0.74581E-02   -0.74581E-02    24   0.151E+00    0.798E+00
DAV:   6    -0.143798090053E+02    0.19134E+01   -0.92895E+00    16   0.215E+01    0.326E+00
DAV:   7    -0.142763516220E+02    0.10346E+00   -0.16111E-01    32   0.294E+00    0.204E+00
DAV:   8    -0.141983855745E+02    0.77966E-01   -0.66407E-02    24   0.268E+00    0.198E-01
DAV:   9    -0.141990786005E+02   -0.69303E-03   -0.59604E-03    16   0.449E-01    0.149E-01
DAV:  10    -0.142048840954E+02   -0.58055E-02   -0.49614E-03    16   0.577E-01    0.717E-02
DAV:  11    -0.142098754140E+02   -0.49913E-02   -0.38040E-03    16   0.350E-01    0.859E-02
DAV:  12    -0.142137013336E+02   -0.38259E-02   -0.21332E-03    16   0.301E-01    0.188E-02
DAV:  13    -0.142158079860E+02   -0.21067E-02   -0.26814E-04    16   0.943E-02    0.991E-03
DAV:  14    -0.142165847661E+02   -0.77678E-03   -0.72434E-05    16   0.465E-02    0.605E-03
DAV:  15    -0.142170234983E+02   -0.43873E-03   -0.34966E-05    16   0.316E-02    0.294E-03
DAV:  16    -0.142171814042E+02   -0.15791E-03   -0.64409E-06    16   0.147E-02    0.169E-03
DAV:  17    -0.142172298099E+02   -0.48406E-04   -0.10848E-06    32   0.602E-03
 augmentation electrons   7.9947123514877960     
 soft         electrons   0.0000000000000000     
 augmentation electrons   7.9947123514877960     
 soft         electrons   0.0000000000000000     
 augmentation electrons   7.9947123514877960     
 soft         electrons   0.0000000000000000     
 augmentation electrons   7.9947123514877960     
 soft         electrons   0.0000000000000000     
 total        electrons   7.9947123514877960     
 total        electrons   7.9947123514877960     
 total        electrons   7.9947123514877960     
 total        electrons   7.9947123514877960     
 augmentation electrons   1.8957889953162712     
 augmentation electrons   1.8957889953162712     
 soft         electrons   0.0000000000000000     
 augmentation electrons   1.8957889953162712     
 soft         electrons   0.0000000000000000     
 augmentation electrons   1.8957889953162712     
 soft         electrons   0.0000000000000000     
 soft         electrons   0.0000000000000000     
 total        electrons   1.8957889953162712     
 total        electrons   1.8957889953162712     
 total        electrons   1.8957889953162712     
 total        electrons   1.8957889953162712     
 augmentation electrons  0.68680401414522363     
 soft         electrons   7.3079059743676513     
 augmentation electrons  0.68680401414522363     
 augmentation electrons  0.68680401414522363     
 soft         electrons   7.3079059743676513     
 augmentation electrons  0.68680401414522363     
 soft         electrons   7.3079059743676513     
 soft         electrons   7.3079059743676513     
 total        electrons   7.9947099885128754     
 total        electrons   7.9947099885128754     
 total        electrons   7.9947099885128754     
 total        electrons   7.9947099885128754     
 Hirshfeld-I algorithm:
 translations:           1           1           1
 H-I iteration:           1
 atom:           1  0.44511376568594613        4.5167275202591672E-003
 atom:           2  0.44599507660396298        2.4527357672057271E-003
 atom:           3 -0.89110884228990905       -6.9694632874649498E-003
 H-I iteration:           2
 atom:           1  0.44830201852315915        3.1882528372130237E-003
 atom:           2  0.44789767352793974        1.9025969239767626E-003
 atom:           3 -0.89619969205109884       -5.0908497611897863E-003
 H-I iteration:           3
 atom:           1  0.45056772562853098        2.2657071053718281E-003
 atom:           2  0.44935737121568209        1.4596976877423451E-003
 atom:           3 -0.89992509684421296       -3.7254047931141177E-003
 H-I iteration:           4
 atom:           1  0.45218666108880168        1.6189354602706985E-003
 atom:           2  0.45046816815620000        1.1107969405179108E-003
 atom:           3 -0.90265482924500162       -2.7297324007886647E-003
 H-I iteration:           5
 atom:           1  0.45334863846269502        1.1619773738933414E-003
 atom:           2  0.45130818040953496        8.4001225333496521E-004
 atom:           3 -0.90465681887222993       -2.0019896272283066E-003
 H-I iteration:           6
 atom:           1  0.45418573034218990        8.3709187949487784E-004
 atom:           2  0.45194030454729966        6.3212413776470022E-004
 atom:           3 -0.90612603488948951       -1.4692160172595781E-003
 H-I iteration:           7
 atom:           1  0.45479063434257866        6.0490400038876180E-004
 atom:           2  0.45241412752427562        4.7382297697595721E-004
 atom:           3 -0.90720476186685428       -1.0787269773647745E-003
 H-I iteration:           8
 atom:           1  0.45522890937498789        4.3827503240922994E-004
 atom:           2  0.45276817217801352        3.5404465373789495E-004
 atom:           3 -0.90799708155300141       -7.9231968614712489E-004
 H-I iteration:           9
 atom:           1  0.45554713309663569        3.1822372164780344E-004
 atom:           2  0.45303201414008876        2.6384196207523969E-004
 atom:           3 -0.90857914723672439       -5.8206568372298761E-004
 H-I iteration:          10
 atom:           1  0.45577861401010311        2.3148091346741895E-004
 atom:           2  0.45322820802519170        1.9619388510294655E-004
 atom:           3 -0.90900682203529481       -4.2767479857042101E-004
 H-I iteration:          11
 atom:           1  0.45594726033992378        1.6864632982066530E-004
 atom:           2  0.45337383708239493        1.4562905720322261E-004
 atom:           3 -0.90932109742231870       -3.1427538702388791E-004
 H-I iteration:          12
 atom:           1  0.45607029009575872        1.2302975583494691E-004
 atom:           2  0.45348176887580161        1.0793179340667924E-004
 atom:           3 -0.90955205897156033       -2.3096154924162615E-004
 H-I iteration:          13
 atom:           1  0.45616014174609743        8.9851650338701461E-005
 atom:           2  0.45356166045165403        7.9891575852419905E-005
 atom:           3 -0.90972180219775145       -1.6974322619112137E-004
 H-I iteration:          14
 atom:           1  0.45622582593330430        6.5684187206871414E-005
 atom:           2  0.45362073391026819        5.9073458614167240E-005
 atom:           3 -0.90984655984357243       -1.2475764582098314E-004
 H-I iteration:          15
 atom:           1  0.45627388170700683        4.8055773702537774E-005
 atom:           2  0.45366437414165489        4.3640231386699035E-005
 atom:           3 -0.90993825584866161       -9.1696005089181298E-005
 H-I iteration:          16
 atom:           1  0.45630906485699418        3.5183149987350060E-005
 atom:           2  0.45369658876020119        3.2214618546300144E-005
 atom:           3 -0.91000565361719521       -6.7397768533594693E-005
 H-I iteration:          17
 atom:           1  0.45633483818086762        2.5773323873434784E-005
 atom:           2  0.45372035352468748        2.3764764486289280E-005
 atom:           3 -0.91005519170555493       -4.9538088359724064E-005
 kE:   0.0000000000000000        0.0000000000000000        0.0000000000000000     
 E(k)  -2.4565036108014179E-004
 dE/dx  -2.4671865616360710E-005   2.8226966090410871E-004  -7.0201795477319853E-006
 dE/dx   2.6867181388567766E-004   1.1278915201668701E-004  -3.3085178330854325E-006
 dE/dx  -2.4399996013392869E-004  -3.9505880106324286E-004   1.0328696534973928E-005
 sigma   2.1061549356113470E-005   2.1513388681574435E-006  -8.1616584580239441E-008
 sigma   2.6024167301834260E-006   2.4855010808867156E-005  -4.9784769800528193E-007
 sigma  -1.0312635585932683E-007  -5.2001933056272350E-007  -5.3481154105990703E-006
 ------------------------------
 dECFDM_A
   2.0191838620016176E-004  -2.3101388151704678E-003   5.7454241489278860E-005
  -2.1988519198682514E-003  -9.2308396576997625E-004   2.7077424624429736E-005
   1.9969336307699178E-003   3.2332226838963870E-003  -8.4531659191193893E-005
 ------------------------------
 dECFDM_L
  -2.3474344131058527E-003  -2.3977945819541967E-004   9.0966517270110737E-006
  -2.3977945142223601E-004  -2.2900716813420785E-003   4.5870304526944731E-005
   9.0966550526085920E-006   4.5870296020837352E-005   4.7175099581839790E-004
   1 F= -.14223914E+02 E0= -.14223914E+02  d E =-.131159E-10
 writing wavefunctions
