H                                                                       
SP        RHF                                                         Gen                 
Number of atoms                            I                1
Info1-9                                    I   N=           9
          25          24           0           0           0         110
           1           1           2
Charge                                     I               -1
Multiplicity                               I                1
Number of electrons                        I                2
Number of alpha electrons                  I                1
Number of beta electrons                   I                1
Number of basis functions                  I                9
Number of independent functions            I                9
Number of point charges in /Mol/           I                0
Number of translation vectors              I                0
Atomic numbers                             I   N=           1
           1
Nuclear charges                            R   N=           1
  1.00000000E+00
Current cartesian coordinates              R   N=           3
  0.00000000E+00  0.00000000E+00  0.00000000E+00
Force Field                                I                0
Int Atom Types                             I   N=           1
           0
MM charges                                 R   N=           1
  0.00000000E+00
Integer atomic weights                     I   N=           1
           1
Real atomic weights                        R   N=           1
  1.00782504E+00
Atom fragment info                         I   N=           1
           0
Atom residue num                           I   N=           1
           0
Nuclear spins                              I   N=           1
           1
Nuclear ZEff                               R   N=           1
 -1.00000000E+00
Nuclear ZNuc                               R   N=           1
  1.00000000E+00
Nuclear QMom                               R   N=           1
  0.00000000E+00
Nuclear GFac                               R   N=           1
  2.79284600E+00
MicOpt                                     I   N=           1
          -1
Number of contracted shells                I                5
Number of primitive shells                 I                7
Pure/Cartesian d shells                    I                1
Pure/Cartesian f shells                    I                1
Highest angular momentum                   I                1
Largest degree of contraction              I                3
Shell types                                I   N=           5
           0           0           0           1           1
Number of primitives per shell             I   N=           5
           3           1           1           1           1
Shell to atom map                          I   N=           5
           1           1           1           1           1
Primitive exponents                        R   N=           7
  1.30100000E+01  1.96200000E+00  4.44600000E-01  1.22000000E-01  2.97400000E-02
  7.27000000E-01  1.41000000E-01
Contraction coefficients                   R   N=           7
  3.34987264E-02  2.34800801E-01  8.13682958E-01  1.00000000E+00  1.00000000E+00
  1.00000000E+00  1.00000000E+00
Coordinates of each shell                  R   N=          15
  0.00000000E+00  0.00000000E+00  0.00000000E+00  0.00000000E+00  0.00000000E+00
  0.00000000E+00  0.00000000E+00  0.00000000E+00  0.00000000E+00  0.00000000E+00
  0.00000000E+00  0.00000000E+00  0.00000000E+00  0.00000000E+00  0.00000000E+00
Constraint Structure                       R   N=           3
  0.00000000E+00  0.00000000E+00  0.00000000E+00
Num ILSW                                   I              100
ILSW                                       I   N=         100
           0           1           0           0           2           0
           0           0           0           0           0          -1
           5           0           0           1           0           0
           0           0           1           0           0           0
           1           1           0           0           0           0
           0           0      100000           0          -1           0
           0           0           0           0           0           0
           0           0           0           1           0           0
           0           0           1           0           0           0
           0           0           4          41           0           0
           0           0           0           0           0           0
           0           0           0           0           0           0
           0           0           0           0           0           0
           0           0           0           0           0           0
           0           0           0           0           0           0
           0           0           0           0           0           0
           0           0           0           0
Num RLSW                                   I               41
RLSW                                       R   N=          41
  1.00000000E+00  1.00000000E+00  1.00000000E+00  1.00000000E+00  1.00000000E+00
  0.00000000E+00  0.00000000E+00  1.00000000E+00  0.00000000E+00  0.00000000E+00
  0.00000000E+00  0.00000000E+00  1.00000000E+00  0.00000000E+00  0.00000000E+00
  0.00000000E+00  0.00000000E+00  1.00000000E+00  0.00000000E+00  0.00000000E+00
  0.00000000E+00  0.00000000E+00  1.00000000E+00  0.00000000E+00  0.00000000E+00
  0.00000000E+00  0.00000000E+00  1.00000000E+00  0.00000000E+00  0.00000000E+00
  0.00000000E+00  0.00000000E+00  0.00000000E+00  0.00000000E+00  0.00000000E+00
  0.00000000E+00  0.00000000E+00  0.00000000E+00  1.00000000E+00  1.00000000E+00
  0.00000000E+00
MxBond                                     I                1
NBond                                      I   N=           1
           0
IBond                                      I   N=           1
           0
RBond                                      R   N=           1
  0.00000000E+00
Virial Ratio                               R      2.009900000235610E+00
SCF Energy                                 R     -4.867802764342297E-01
Total Energy                               R     -4.867802764342297E-01
RMS Density                                R      1.775945747663344E-09
External E-field                           R   N=          35
  0.00000000E+00  0.00000000E+00  0.00000000E+00  0.00000000E+00  0.00000000E+00
  0.00000000E+00  0.00000000E+00  0.00000000E+00  0.00000000E+00  0.00000000E+00
  0.00000000E+00  0.00000000E+00  0.00000000E+00  0.00000000E+00  0.00000000E+00
  0.00000000E+00  0.00000000E+00  0.00000000E+00  0.00000000E+00  0.00000000E+00
  0.00000000E+00  0.00000000E+00  0.00000000E+00  0.00000000E+00  0.00000000E+00
  0.00000000E+00  0.00000000E+00  0.00000000E+00  0.00000000E+00  0.00000000E+00
  0.00000000E+00  0.00000000E+00  0.00000000E+00  0.00000000E+00  0.00000000E+00
IOpCl                                      I                0
IROHF                                      I                0
Alpha Orbital Energies                     R   N=           9
 -4.49572934E-02  2.81729256E-01  5.58962273E-01  5.58962273E-01  5.58962273E-01
  1.08853569E+00  2.13930123E+00  2.13930123E+00  2.13930123E+00
Alpha MO coefficients                      R   N=          81
  3.54856191E-01  3.95925403E-01  4.33914330E-01 -4.07115891E-17 -5.49159257E-17
  1.54262615E-16  1.30734618E-16  2.05013562E-17 -7.47118803E-17 -1.49581088E-01
 -1.03178824E+00  1.32557875E+00 -5.00358916E-17  2.88227181E-17 -2.31373745E-17
  1.45624191E-16  3.33937789E-16 -4.31979505E-17  1.19302603E-16  3.43477585E-16
  9.32527646E-16  2.57894778E-03 -2.77826891E-04 -5.10754855E-02 -5.15817979E-02
  5.55684401E-03  1.02156600E+00 -5.36933851E-16  9.78485341E-16 -1.40178734E-15
 -1.66748279E-02 -4.83430269E-02 -5.78996310E-04  3.33514937E-01  9.66913818E-01
  1.15805643E-02 -4.81876228E-16  1.32672667E-16 -2.67595416E-16 -4.82776606E-02
  1.66825638E-02 -2.52842296E-03  9.65606421E-01 -3.33669663E-01  5.05712459E-02
 -1.41407091E+00  1.63752366E+00 -5.80886550E-01 -1.48189031E-16  8.91408186E-16
  1.68410256E-16 -2.53571620E-16 -7.11962375E-16 -5.96572514E-16  5.98720986E-17
 -1.85182761E-16 -2.90689960E-16 -4.65539373E-01 -3.24659507E-01  9.77154534E-01
  1.98982149E-01  1.38766880E-01 -4.17658141E-01 -2.57627078E-17  9.44718084E-17
 -3.41362532E-17  1.01772822E+00  1.78151841E-02  4.90788725E-01 -4.35000261E-01
 -7.61461614E-03 -2.09774298E-01  2.16536958E-15 -2.37101117E-15  3.67434811E-16
 -1.56409862E-01  1.08223866E+00  2.85056365E-01  6.68531436E-02 -4.62573493E-01
 -1.21839594E-01
Total SCF Density                          R   N=          45
  2.51845832E-01  2.80993161E-01  3.13513850E-01  3.07954373E-01  3.43595412E-01
  3.76563292E-01 -2.88935188E-17 -3.22375046E-17 -3.53306838E-17  3.31486697E-33
 -3.89745124E-17 -4.34852200E-17 -4.76576142E-17  4.47142920E-33  6.03151779E-33
  1.09482088E-16  1.22152976E-16  1.33873518E-16 -1.25605524E-32 -1.69429486E-32
  4.75939087E-32  9.27839767E-17  1.03522312E-16  1.13455248E-16 -1.06448281E-32
 -1.43588251E-32  4.03349279E-32  3.41830804E-32  1.45500663E-17  1.62340154E-17
  1.77916645E-17 -1.66928558E-33 -2.25170191E-33  6.32518563E-33  5.36047392E-33
  8.40611211E-34 -5.30239465E-17 -5.91606626E-17 -6.48371110E-17  6.08327874E-33
  8.20574413E-33 -2.30505000E-32 -1.95348582E-32 -3.06338974E-33  1.11637301E-32
Mulliken Charges                           R   N=           1
 -1.00000000E+00
ONIOM Charges                              I   N=          16
          -1           0           0           0           0           0
           0           0           0           0           0           0
           0           0           0           0
ONIOM Multiplicities                       I   N=          16
           1           0           0           0           0           0
           0           0           0           0           0           0
           0           0           0           0
Atom Layers                                I   N=           1
           1
Atom Modifiers                             I   N=           1
           0
Force Field                                I                0
Int Atom Modified Types                    I   N=           1
           0
Link Atoms                                 I   N=           1
           0
Atom Modified MM Charges                   R   N=           1
  0.00000000E+00
Link Distances                             R   N=           4
  0.00000000E+00  0.00000000E+00  0.00000000E+00  0.00000000E+00
Cartesian Gradient                         R   N=           3
  0.00000000E+00  0.00000000E+00  0.00000000E+00
Dipole Moment                              R   N=           3
 -6.09765667E-16  1.60688364E-17  4.69927110E-17
Quadrupole Moment                          R   N=           6
  0.00000000E+00  0.00000000E+00  0.00000000E+00 -1.34526545E-32  5.29142625E-32
  1.46906065E-32
QEq coupling tensors                       R   N=           6
  0.00000000E+00  0.00000000E+00  0.00000000E+00  0.00000000E+00  0.00000000E+00
  0.00000000E+00
