 argument  1 = h2o.inp
                                         
                                         


              Northwest Computational Chemistry Package (NWChem) 6.6
              ------------------------------------------------------


                    Environmental Molecular Sciences Laboratory
                       Pacific Northwest National Laboratory
                                Richland, WA 99352

                              Copyright (c) 1994-2015
                       Pacific Northwest National Laboratory
                            Battelle Memorial Institute

             NWChem is an open-source computational chemistry package
                        distributed under the terms of the
                      Educational Community License (ECL) 2.0
             A copy of the license is included with this distribution
                              in the LICENSE.TXT file

                                  ACKNOWLEDGMENT
                                  --------------

            This software and its documentation were developed at the
            EMSL at Pacific Northwest National Laboratory, a multiprogram
            national laboratory, operated for the U.S. Department of Energy
            by Battelle under Contract Number DE-AC05-76RL01830. Support
            for this work was provided by the Department of Energy Office
            of Biological and Environmental Research, Office of Basic
            Energy Sciences, and the Office of Advanced Scientific Computing.


           Job information
           ---------------

    hostname        = R700
    program         = nwchem
    date            = Sun Nov 29 08:45:55 2015

    compiled        = Thu_Oct_22_13:27:42_2015
    source          = /home/samio/src/quantumChemistry/nwchem-6.6
    nwchem branch   = 6.6
    nwchem revision = 27746
    ga revision     = 10594
    input           = h2o.inp
    prefix          = h2o.
    data base       = ./h2o.db
    status          = startup
    nproc           =        1
    time left       =     -1s



           Memory information
           ------------------

    heap     =   13107194 doubles =    100.0 Mbytes
    stack    =   13107195 doubles =    100.0 Mbytes
    global   =   26214400 doubles =    200.0 Mbytes (distinct from heap & stack)
    total    =   52428789 doubles =    400.0 Mbytes
    verify   = yes
    hardfail = no 


           Directory information
           ---------------------

  0 permanent = .
  0 scratch   = .




                                NWChem Input Module
                                -------------------



 Scaling coordinates for geometry "geometry" by  1.889725989
 (inverse scale =  0.529177249)

 Turning off AUTOSYM since
 SYMMETRY directive was detected!


          ------
          auto-z
          ------


                             Geometry "geometry" -> ""
                             -------------------------

 Output coordinates in angstroms (scale by  1.889725989 to convert to a.u.)

  No.       Tag          Charge          X              Y              Z
 ---- ---------------- ---------- -------------- -------------- --------------
    1 H                    1.0000     0.00000000     0.00000000     0.00000000
    2 O                    8.0000     1.00000000     0.00000000     0.00000000
    3 H                    1.0000     1.00000000     1.00000000     0.00000000

      Atomic Mass 
      ----------- 

      H                  1.007825
      O                 15.994910


 Effective nuclear repulsion energy (a.u.)       8.8410208052

            Nuclear Dipole moment (a.u.) 
            ----------------------------
        X                 Y               Z
 ---------------- ---------------- ----------------
    17.0075338972     1.8897259886     0.0000000000



                                Z-matrix (autoz)
                                -------- 

 Units are Angstrom for bonds and degrees for angles

      Type          Name      I     J     K     L     M      Value
      ----------- --------  ----- ----- ----- ----- ----- ----------
    1 Stretch                  1     2                       1.00000
    2 Stretch                  2     3                       1.00000
    3 Bend                     1     2     3                90.00000


            XYZ format geometry
            -------------------
     3
 geometry
 H                     0.00000000     0.00000000     0.00000000
 O                     1.00000000     0.00000000     0.00000000
 H                     1.00000000     1.00000000     0.00000000

 ==============================================================================
                                internuclear distances
 ------------------------------------------------------------------------------
       center one      |      center two      | atomic units |  angstroms
 ------------------------------------------------------------------------------
    2 O                |   1 H                |     1.88973  |     1.00000
    3 H                |   2 O                |     1.88973  |     1.00000
 ------------------------------------------------------------------------------
                         number of included internuclear distances:          2
 ==============================================================================



 ==============================================================================
                                 internuclear angles
 ------------------------------------------------------------------------------
        center 1       |       center 2       |       center 3       |  degrees
 ------------------------------------------------------------------------------
    1 H                |   2 O                |   3 H                |    90.00
 ------------------------------------------------------------------------------
                            number of included internuclear angles:          1
 ==============================================================================



                      Basis "ao basis" -> "" (cartesian)
                      -----
  H (Hydrogen)
  ------------
            Exponent  Coefficients 
       -------------- ---------------------------------------------------------
  1 S  1.30100000E+01  0.019685
  1 S  1.96200000E+00  0.137977
  1 S  4.44600000E-01  0.478148

  2 S  1.22000000E-01  1.000000

  3 S  2.97400000E-02  1.000000

  4 P  7.27000000E-01  1.000000

  5 P  1.41000000E-01  1.000000

  O (Oxygen)
  ----------
            Exponent  Coefficients 
       -------------- ---------------------------------------------------------
  1 S  1.17200000E+04  0.000710
  1 S  1.75900000E+03  0.005470
  1 S  4.00800000E+02  0.027837
  1 S  1.13700000E+02  0.104800
  1 S  3.70300000E+01  0.283062
  1 S  1.32700000E+01  0.448719
  1 S  5.02500000E+00  0.270952
  1 S  1.01300000E+00  0.015458

  2 S  1.17200000E+04 -0.000160
  2 S  1.75900000E+03 -0.001263
  2 S  4.00800000E+02 -0.006267
  2 S  1.13700000E+02 -0.025716
  2 S  3.70300000E+01 -0.070924
  2 S  1.32700000E+01 -0.165411
  2 S  5.02500000E+00 -0.116955
  2 S  1.01300000E+00  0.557368

  3 S  3.02300000E-01  1.000000

  4 S  7.89600000E-02  1.000000

  5 P  1.77000000E+01  0.043018
  5 P  3.85400000E+00  0.228913
  5 P  1.04600000E+00  0.508728

  6 P  2.75300000E-01  1.000000

  7 P  6.85600000E-02  1.000000

  8 D  1.18500000E+00  1.000000

  9 D  3.32000000E-01  1.000000



 Summary of "ao basis" -> "" (cartesian)
 ------------------------------------------------------------------------------
       Tag                 Description            Shells   Functions and Types
 ---------------- ------------------------------  ------  ---------------------
 H                       user specified              5        9   3s2p
 O                       user specified              9       25   4s3p2d



                                 NWChem DFT Module
                                 -----------------




 Summary of "ao basis" -> "ao basis" (cartesian)
 ------------------------------------------------------------------------------
       Tag                 Description            Shells   Functions and Types
 ---------------- ------------------------------  ------  ---------------------
 H                       user specified              5        9   3s2p
 O                       user specified              9       25   4s3p2d


  Caching 1-el integrals 

            General Information
            -------------------
          SCF calculation type: DFT
          Wavefunction type:  closed shell.
          No. of atoms     :     3
          No. of electrons :    10
           Alpha electrons :     5
            Beta electrons :     5
          Charge           :     0
          Spin multiplicity:     1
          Use of symmetry is: off; symmetry adaption is: off
          Maximum number of iterations:  30
          AO basis - number of functions:    43
                     number of shells:    19
          Convergence on energy requested: 1.00D-06
          Convergence on density requested: 1.00D-05
          Convergence on gradient requested: 5.00D-04

              XC Information
              --------------
                         B3LYP Method XC Potential
                     Hartree-Fock (Exact) Exchange  0.200          
                        Slater Exchange Functional  0.800 local    
                    Becke 1988 Exchange Functional  0.720 non-local
              Lee-Yang-Parr Correlation Functional  0.810          
                  VWN I RPA Correlation Functional  0.190 local    

             Grid Information
             ----------------
          Grid used for XC integration:  medium    
          Radial quadrature: Mura-Knowles        
          Angular quadrature: Lebedev. 
          Tag              B.-S. Rad. Rad. Pts. Rad. Cut. Ang. Pts.
          ---              ---------- --------- --------- ---------
          H                   0.35       45          11.0       434
          O                   0.60       49           9.0       434
          Grid pruning is: on 
          Number of quadrature shells:   139
          Spatial weights used:  Erf1

          Convergence Information
          -----------------------
          Convergence aids based upon iterative change in 
          total energy or number of iterations. 
          Levelshifting, if invoked, occurs when the 
          HOMO/LUMO gap drops below (HL_TOL): 1.00D-02
          DIIS, if invoked, will attempt to extrapolate 
          using up to (NFOCK): 10 stored Fock matrices.

                    Damping( 0%)  Levelshifting(0.5)       DIIS
                  --------------- ------------------- ---------------
          dE  on:    start            ASAP                start   
          dE off:    2 iters         30 iters            30 iters 


      Screening Tolerance Information
      -------------------------------
          Density screening/tol_rho: 1.00D-10
          AO Gaussian exp screening on grid/accAOfunc:  14
          CD Gaussian exp screening on grid/accCDfunc:  20
          XC Gaussian exp screening on grid/accXCfunc:  20
          Schwarz screening/accCoul: 1.00D-08


      Superposition of Atomic Density Guess
      -------------------------------------

 Sum of atomic energies:         -75.76548395

      Non-variational initial energy
      ------------------------------

 Total energy =     -75.865940
 1-e energy   =    -121.089190
 2-e energy   =      36.382229
 HOMO         =      -0.470706
 LUMO         =       0.007745

   Time after variat. SCF:      0.2
   Time prior to 1st pass:      0.2

           Kinetic energy =     76.651803792850


 Integral file          = ./h2o.aoints.0
 Record size in doubles =  65536        No. of integs per rec  =  43688
 Max. records in memory =     16        Max. records in file   =  29882
 No. of bits per label  =      8        No. of bits per value  =     64


 #quartets = 1.815D+04 #integrals = 1.696D+05 #direct =  0.0% #cached =100.0%


 Grid_pts file          = ./h2o.gridpts.0
 Record size in doubles =  12289        No. of grid_pts per rec  =   3070
 Max. records in memory =     23        Max. recs in file   =    159364


           Memory utilization after 1st SCF pass: 
           Heap Space remaining (MW):       11.77            11774250
          Stack Space remaining (MW):       13.11            13106904

   convergence    iter        energy       DeltaE   RMS-Dens  Diis-err    time
 ---------------- ----- ----------------- --------- --------- ---------  ------
 d= 0,ls=0.0,diis     1    -76.3956876827 -8.52D+01  2.05D-02  4.25D-01     1.1

           Kinetic energy =     74.095268048015

 d= 0,ls=0.0,diis     2    -76.3552409792  4.04D-02  9.87D-03  8.87D-01     1.7

           Kinetic energy =     76.099329470300

 d= 0,ls=0.0,diis     3    -76.4379466846 -8.27D-02  1.30D-03  1.90D-02     2.3

           Kinetic energy =     75.802801044126

 d= 0,ls=0.0,diis     4    -76.4395919030 -1.65D-03  2.10D-04  2.96D-04     2.9

           Kinetic energy =     75.816124664530

 d= 0,ls=0.0,diis     5    -76.4396214565 -2.96D-05  1.13D-05  1.36D-07     3.6

           Kinetic energy =     75.815800091394

 d= 0,ls=0.0,diis     6    -76.4396214819 -2.54D-08  1.75D-06  2.02D-08     4.2


         Total DFT energy =      -76.439621481880
      One electron energy =     -122.292908587940
           Coulomb energy =       46.296374301289
    Exchange-Corr. energy =       -9.284108000441
 Nuclear repulsion energy =        8.841020805213

 Numeric. integr. density =       10.000001887900

     Total iterative time =      4.0s



                       DFT Final Molecular Orbital Analysis
                       ------------------------------------

 Vector    1  Occ=2.000000D+00  E=-1.917236D+01
              MO Center=  1.0D+00,  6.8D-05,  1.2D-14, r^2= 1.5D-02
   Bfn.  Coefficient  Atom+Function         Bfn.  Coefficient  Atom+Function  
  ----- ------------  ---------------      ----- ------------  ---------------
    10      1.004233  2 O  s          

 Vector    2  Occ=2.000000D+00  E=-1.018668D+00
              MO Center=  8.4D-01,  1.6D-01,  1.1D-11, r^2= 5.0D-01
   Bfn.  Coefficient  Atom+Function         Bfn.  Coefficient  Atom+Function  
  ----- ------------  ---------------      ----- ------------  ---------------
    11      0.419205  2 O  s                 12      0.406633  2 O  s          
     1      0.215550  1 H  s                 35      0.215550  3 H  s          

 Vector    3  Occ=2.000000D+00  E=-4.986537D-01
              MO Center=  8.3D-01,  1.7D-01,  1.1D-11, r^2= 8.0D-01
   Bfn.  Coefficient  Atom+Function         Bfn.  Coefficient  Atom+Function  
  ----- ------------  ---------------      ----- ------------  ---------------
    14     -0.369276  2 O  px                15     -0.369276  2 O  py         
     1      0.337283  1 H  s                 35     -0.337283  3 H  s          

 Vector    4  Occ=2.000000D+00  E=-4.243721D-01
              MO Center=  1.0D+00, -1.5D-02, -8.0D-12, r^2= 7.8D-01
   Bfn.  Coefficient  Atom+Function         Bfn.  Coefficient  Atom+Function  
  ----- ------------  ---------------      ----- ------------  ---------------
    12      0.378684  2 O  s                 14      0.374561  2 O  px         
    15     -0.374561  2 O  py                 1     -0.235631  1 H  s          
    35     -0.235631  3 H  s                 11      0.186191  2 O  s          
    17      0.178842  2 O  px                18     -0.178842  2 O  py         

 Vector    5  Occ=2.000000D+00  E=-3.232445D-01
              MO Center=  9.6D-01,  3.5D-02,  3.9D-10, r^2= 7.2D-01
   Bfn.  Coefficient  Atom+Function         Bfn.  Coefficient  Atom+Function  
  ----- ------------  ---------------      ----- ------------  ---------------
    16      0.635934  2 O  pz                19      0.417473  2 O  pz         

 Vector    6  Occ=0.000000D+00  E=-3.055471D-02
              MO Center=  2.8D-01,  7.2D-01,  3.3D-09, r^2= 6.8D+00
   Bfn.  Coefficient  Atom+Function         Bfn.  Coefficient  Atom+Function  
  ----- ------------  ---------------      ----- ------------  ---------------
     3      0.509195  1 H  s                 37      0.509195  3 H  s          
    13     -0.356042  2 O  s                 12     -0.249475  2 O  s          
     2      0.200789  1 H  s                 36      0.200789  3 H  s          

 Vector    7  Occ=0.000000D+00  E= 2.219466D-02
              MO Center=  2.9D-01,  7.1D-01,  3.4D-10, r^2= 1.2D+01
   Bfn.  Coefficient  Atom+Function         Bfn.  Coefficient  Atom+Function  
  ----- ------------  ---------------      ----- ------------  ---------------
     3      2.530201  1 H  s                 37     -2.530201  3 H  s          
     2      0.410779  1 H  s                 36     -0.410779  3 H  s          
    20      0.331589  2 O  px                21      0.331589  2 O  py         

 Vector    8  Occ=0.000000D+00  E= 9.341731D-02
              MO Center=  9.5D-01,  4.5D-02, -3.8D-09, r^2= 1.0D+01
   Bfn.  Coefficient  Atom+Function         Bfn.  Coefficient  Atom+Function  
  ----- ------------  ---------------      ----- ------------  ---------------
    13      3.408393  2 O  s                  2     -1.231261  1 H  s          
    36     -1.231261  3 H  s                 20     -0.968691  2 O  px         
    21      0.968691  2 O  py                 3     -0.859124  1 H  s          
    37     -0.859124  3 H  s                  7     -0.514650  1 H  px         
    42      0.514650  3 H  py                12      0.242454  2 O  s          

 Vector    9  Occ=0.000000D+00  E= 1.204377D-01
              MO Center=  1.1D+00, -9.2D-02,  1.0D-08, r^2= 5.9D+00
   Bfn.  Coefficient  Atom+Function         Bfn.  Coefficient  Atom+Function  
  ----- ------------  ---------------      ----- ------------  ---------------
    22      1.246693  2 O  pz                19     -0.300586  2 O  pz         
    16     -0.243208  2 O  pz         

 Vector   10  Occ=0.000000D+00  E= 1.299740D-01
              MO Center=  8.9D-01,  1.1D-01, -2.0D-09, r^2= 7.6D+00
   Bfn.  Coefficient  Atom+Function         Bfn.  Coefficient  Atom+Function  
  ----- ------------  ---------------      ----- ------------  ---------------
    13      0.794601  2 O  s                 20      0.764714  2 O  px         
    21     -0.764714  2 O  py                 2      0.588982  1 H  s          
    36      0.588982  3 H  s                  3     -0.502349  1 H  s          
    37     -0.502349  3 H  s                 12     -0.330248  2 O  s          
     7     -0.254683  1 H  px                42      0.254683  3 H  py         

 Vector   11  Occ=0.000000D+00  E= 1.372069D-01
              MO Center=  4.0D-01,  6.0D-01, -8.4D-11, r^2= 6.3D+00
   Bfn.  Coefficient  Atom+Function         Bfn.  Coefficient  Atom+Function  
  ----- ------------  ---------------      ----- ------------  ---------------
     3      1.873878  1 H  s                 37     -1.873878  3 H  s          
     7      0.619497  1 H  px                42      0.619497  3 H  py         
    14     -0.245068  2 O  px                15     -0.245068  2 O  py         
    20      0.244392  2 O  px                21      0.244392  2 O  py         
     1     -0.209091  1 H  s                 35      0.209091  3 H  s          

 Vector   12  Occ=0.000000D+00  E= 1.718965D-01
              MO Center=  1.2D+00, -2.1D-01,  1.2D-10, r^2= 8.9D+00
   Bfn.  Coefficient  Atom+Function         Bfn.  Coefficient  Atom+Function  
  ----- ------------  ---------------      ----- ------------  ---------------
     3      2.492119  1 H  s                 37     -2.492119  3 H  s          
     2      2.325956  1 H  s                 36     -2.325956  3 H  s          
    20      1.933940  2 O  px                21      1.933940  2 O  py         
     7      0.457896  1 H  px                42      0.457896  3 H  py         

 Vector   13  Occ=0.000000D+00  E= 2.384961D-01
              MO Center=  6.4D-01,  3.6D-01, -3.0D-09, r^2= 4.2D+00
   Bfn.  Coefficient  Atom+Function         Bfn.  Coefficient  Atom+Function  
  ----- ------------  ---------------      ----- ------------  ---------------
    13      3.300460  2 O  s                  2     -1.720075  1 H  s          
    36     -1.720075  3 H  s                  8      0.764999  1 H  py         
    41     -0.764999  3 H  px                20     -0.265531  2 O  px         
    21      0.265531  2 O  py                 3     -0.224856  1 H  s          
    37     -0.224856  3 H  s          

 Vector   14  Occ=0.000000D+00  E= 2.567074D-01
              MO Center=  9.4D-01,  6.1D-02, -4.0D-09, r^2= 5.5D+00
   Bfn.  Coefficient  Atom+Function         Bfn.  Coefficient  Atom+Function  
  ----- ------------  ---------------      ----- ------------  ---------------
    13      5.191924  2 O  s                  2     -2.374714  1 H  s          
    36     -2.374714  3 H  s                 20     -1.446997  2 O  px         
    21      1.446997  2 O  py                 3     -0.453953  1 H  s          
    37     -0.453953  3 H  s                 17     -0.408656  2 O  px         
    18      0.408656  2 O  py                 8     -0.398259  1 H  py         

 Vector   15  Occ=0.000000D+00  E= 2.805076D-01
              MO Center=  4.8D-01,  5.2D-01,  5.2D-10, r^2= 3.8D+00
   Bfn.  Coefficient  Atom+Function         Bfn.  Coefficient  Atom+Function  
  ----- ------------  ---------------      ----- ------------  ---------------
     9      1.154339  1 H  pz                43     -1.154339  3 H  pz         

 Vector   16  Occ=0.000000D+00  E= 2.924425D-01
              MO Center=  6.2D-01,  3.8D-01, -2.1D-09, r^2= 4.3D+00
   Bfn.  Coefficient  Atom+Function         Bfn.  Coefficient  Atom+Function  
  ----- ------------  ---------------      ----- ------------  ---------------
    22     -1.173188  2 O  pz                 9      1.068367  1 H  pz         
    43      1.068367  3 H  pz                19     -0.501908  2 O  pz         

 Vector   17  Occ=0.000000D+00  E= 4.445413D-01
              MO Center=  5.5D-01,  4.5D-01, -3.6D-10, r^2= 5.2D+00
   Bfn.  Coefficient  Atom+Function         Bfn.  Coefficient  Atom+Function  
  ----- ------------  ---------------      ----- ------------  ---------------
     8      2.524150  1 H  py                41      2.524150  3 H  px         
     2      1.750891  1 H  s                 36     -1.750891  3 H  s          
    20     -1.340698  2 O  px                21     -1.340698  2 O  py         
     3     -0.930660  1 H  s                 37      0.930660  3 H  s          
     7      0.704527  1 H  px                42      0.704527  3 H  py         

 Vector   18  Occ=0.000000D+00  E= 4.529881D-01
              MO Center=  3.1D-01,  6.9D-01,  1.1D-09, r^2= 5.2D+00
   Bfn.  Coefficient  Atom+Function         Bfn.  Coefficient  Atom+Function  
  ----- ------------  ---------------      ----- ------------  ---------------
    13      6.055959  2 O  s                  2     -3.743086  1 H  s          
    36     -3.743086  3 H  s                 12      2.442231  2 O  s          
     7     -2.118110  1 H  px                42      2.118110  3 H  py         
    20     -0.636754  2 O  px                21      0.636754  2 O  py         
     3     -0.627984  1 H  s                 37     -0.627984  3 H  s          

 Vector   19  Occ=0.000000D+00  E= 5.117921D-01
              MO Center=  4.4D-01,  5.6D-01, -1.0D-10, r^2= 4.5D+00
   Bfn.  Coefficient  Atom+Function         Bfn.  Coefficient  Atom+Function  
  ----- ------------  ---------------      ----- ------------  ---------------
     2      6.546974  1 H  s                 36     -6.546974  3 H  s          
     7      3.261320  1 H  px                42      3.261320  3 H  py         
     3      1.239367  1 H  s                 37     -1.239367  3 H  s          
     8      1.137398  1 H  py                41      1.137398  3 H  px         
    20      0.852771  2 O  px                21      0.852771  2 O  py         


 center of mass
 --------------
 x =   1.78398174 y =   0.10574425 z =   0.00000000

 moments of inertia (a.u.)
 ------------------
           3.397616588225          -0.201391301930           0.000000000000
          -0.201391301930           3.397616588225           0.000000000000
           0.000000000000           0.000000000000           6.795233176450

     Multipole analysis of the density
     ---------------------------------

     L   x y z        total         alpha         beta         nuclear
     -   - - -        -----         -----         ----         -------
     0   0 0 0     -0.000000     -5.000000     -5.000000     10.000000

     1   1 0 0     -0.576294     -8.791914     -8.791914     17.007534
     1   0 1 0      0.576294     -0.656716     -0.656716      1.889726
     1   0 0 1     -0.000000     -0.000000     -0.000000      0.000000

     2   2 0 0     -6.123968    -19.131773    -19.131773     32.139579
     2   1 1 0      1.230973     -1.170046     -1.170046      3.571064
     2   1 0 1     -0.000000     -0.000000     -0.000000      0.000000
     2   0 2 0     -3.945893     -3.758479     -3.758479      3.571064
     2   0 1 1     -0.000000     -0.000000     -0.000000      0.000000
     2   0 0 2     -5.857050     -2.928525     -2.928525      0.000000


 Parallel integral file used       4 records with       0 large values


 Task  times  cpu:        4.2s     wall:        3.7s
 Summary of allocated global arrays
-----------------------------------
  No active global arrays



                         GA Statistics for process    0
                         ------------------------------

       create   destroy   get      put      acc     scatter   gather  read&inc
calls:  109      109     4700     1149     2278        0        0      294     
number of processes/call 1.00e+00 1.00e+00 1.00e+00 0.00e+00 0.00e+00
bytes total:             9.14e+06 1.63e+06 4.92e+06 0.00e+00 0.00e+00 1.18e+03
bytes remote:            0.00e+00 0.00e+00 0.00e+00 0.00e+00 0.00e+00 0.00e+00
Max memory consumed for GA by this process: 576888 bytes
MA_summarize_allocated_blocks: starting scan ...
MA_summarize_allocated_blocks: scan completed: 0 heap blocks, 0 stack blocks
MA usage statistics:

	allocation statistics:
					      heap	     stack
					      ----	     -----
	current number of blocks	         0	         0
	maximum number of blocks	        23	        51
	current total bytes		         0	         0
	maximum total bytes		  10663228	  22510940
	maximum total K-bytes		     10664	     22511
	maximum total M-bytes		        11	        23


                                NWChem Input Module
                                -------------------





                                     CITATION
                                     --------
                Please cite the following reference when publishing
                           results obtained with NWChem:

                 M. Valiev, E.J. Bylaska, N. Govind, K. Kowalski,
              T.P. Straatsma, H.J.J. van Dam, D. Wang, J. Nieplocha,
                        E. Apra, T.L. Windus, W.A. de Jong
                 "NWChem: a comprehensive and scalable open-source
                  solution for large scale molecular simulations"
                      Comput. Phys. Commun. 181, 1477 (2010)
                           doi:10.1016/j.cpc.2010.04.018

                                      AUTHORS
                                      -------
          E. Apra, E. J. Bylaska, W. A. de Jong, N. Govind, K. Kowalski,
       T. P. Straatsma, M. Valiev, H. J. J. van Dam, D. Wang, T. L. Windus,
        J. Hammond, J. Autschbach, K. Bhaskaran-Nair, J. Brabec, K. Lopata,
       S. A. Fischer, S. Krishnamoorthy, W. Ma, M. Klemm, O. Villa, Y. Chen,
    V. Anisimov, F. Aquino, S. Hirata, M. T. Hackler, T. Risthaus, M. Malagoli,
       A. Marenich, A. Otero-de-la-Roza, J. Mullin, P. Nichols, R. Peverati,
     J. Pittner, Y. Zhao, P.-D. Fan, A. Fonari, M. Williamson, R. J. Harrison,
       J. R. Rehr, M. Dupuis, D. Silverstein, D. M. A. Smith, J. Nieplocha,
        V. Tipparaju, M. Krishnan, B. E. Van Kuiken, A. Vazquez-Mayagoitia,
        L. Jensen, M. Swart, Q. Wu, T. Van Voorhis, A. A. Auer, M. Nooijen,
      L. D. Crosby, E. Brown, G. Cisneros, G. I. Fann, H. Fruchtl, J. Garza,
        K. Hirao, R. A. Kendall, J. A. Nichols, K. Tsemekhman, K. Wolinski,
     J. Anchell, D. E. Bernholdt, P. Borowski, T. Clark, D. Clerc, H. Dachsel,
   M. J. O. Deegan, K. Dyall, D. Elwood, E. Glendening, M. Gutowski, A. C. Hess,
         J. Jaffe, B. G. Johnson, J. Ju, R. Kobayashi, R. Kutteh, Z. Lin,
   R. Littlefield, X. Long, B. Meng, T. Nakajima, S. Niu, L. Pollack, M. Rosing,
   K. Glaesemann, G. Sandrone, M. Stave, H. Taylor, G. Thomas, J. H. van Lenthe,
                               A. T. Wong, Z. Zhang.

 Total times  cpu:        4.2s     wall:        3.7s
